
  ___ ___ ___ _ _ _  
 |   |   |_  | | | | 
 | | | | | . | | | | 
 |__ |  _|___|_____|  25.1.0
 |___|_|             

User:   georgios-vourvachakis@georgios-vourvachakis-82K2
Date:   Fri Apr 11 14:24:40 2025
Arch:   x86_64
Pid:    193369
CWD:    /home/georgios-vourvachakis/Desktop/DFT_codes
Python: 3.12.3
gpaw:   /home/georgios-vourvachakis/Desktop/DFT_codes/.venv/lib/python3.12/site-packages/gpaw
_gpaw:  /home/georgios-vourvachakis/Desktop/DFT_codes/.venv/lib/python3.12/site-packages/
        _gpaw.cpython-312-x86_64-linux-gnu.so
ase:    /home/georgios-vourvachakis/Desktop/DFT_codes/.venv/lib/python3.12/site-packages/ase (version 3.24.0)
numpy:  /home/georgios-vourvachakis/Desktop/DFT_codes/.venv/lib/python3.12/site-packages/numpy (version 2.2.3)
scipy:  /home/georgios-vourvachakis/Desktop/DFT_codes/.venv/lib/python3.12/site-packages/scipy (version 1.15.1)
libxc:  5.2.3
units:  Angstrom and eV
cores: 1
OpenMP: False
OMP_NUM_THREADS: 1

Input parameters:
  kpts: [10 10 10]
  mode: {ecut: 500.0,
         name: pw}
  setups: {Fe: :d,0.5}

System changes: positions, numbers, cell, pbc, initial_charges, initial_magmoms 

Initialize ...

species:
  Fe:
    name: Iron
    id: f2f69ec1ec8113f5f2b13e9fc929b23f
    Z: 26.0
    valence: 8
    core: 18
    charge: 0.0
    Hubbard: {U: 0.5,  # eV
              l: 2,
              scale: True}
    file: /home/georgios-vourvachakis/Desktop/DFT_codes/gpaw_datasets/gpaw-setups-0.9.20000/Fe.LDA.gz
    compensation charges: {type: gauss,
                           rc: 0.33,
                           lmax: 2}
    cutoffs: {filter: 2.06,
              core: 2.67}
    projectors:
      #              energy  rcut
      - 4s(2.00)    -5.481   1.164
      - 4p(0.00)    -1.431   1.058
      - 3d(6.00)    -7.753   1.058
      -  s          21.730   1.164
      -  p          25.780   1.058
      -  d          19.459   1.058
  
    # Using partial waves for Fe as LCAO basis

Reference energy: -69115.878741  # eV

Spin-polarized calculation.
Magnetic moment: 0.000000

Convergence criteria:
 Maximum [total energy] change in last 3 cyles: 0.0005 eV / valence electron
 Maximum integral of absolute [dens]ity change: 0.0001 electrons / valence electron
 Maximum integral of absolute [eigenst]ate change: 4e-08 eV^2 / valence electron
 Maximum number of scf [iter]ations: 333
 (Square brackets indicate name in SCF output, whereas a 'c' in
 the SCF output indicates the quantity has converged.)

Symmetries present (total): 48

  ( 1  0  0)  ( 1  0  0)  ( 1  0  0)  ( 1  0  0)  ( 1  0  0)  ( 1  0  0)
  ( 0  1  0)  ( 0  1  0)  ( 0  0  1)  ( 0  0  1)  ( 0  0 -1)  ( 0  0 -1)
  ( 0  0  1)  ( 0  0 -1)  ( 0  1  0)  ( 0 -1  0)  ( 0  1  0)  ( 0 -1  0)

  ( 1  0  0)  ( 1  0  0)  ( 0  1  0)  ( 0  1  0)  ( 0  1  0)  ( 0  1  0)
  ( 0 -1  0)  ( 0 -1  0)  ( 1  0  0)  ( 1  0  0)  ( 0  0  1)  ( 0  0  1)
  ( 0  0  1)  ( 0  0 -1)  ( 0  0  1)  ( 0  0 -1)  ( 1  0  0)  (-1  0  0)

  ( 0  1  0)  ( 0  1  0)  ( 0  1  0)  ( 0  1  0)  ( 0  0  1)  ( 0  0  1)
  ( 0  0 -1)  ( 0  0 -1)  (-1  0  0)  (-1  0  0)  ( 1  0  0)  ( 1  0  0)
  ( 1  0  0)  (-1  0  0)  ( 0  0  1)  ( 0  0 -1)  ( 0  1  0)  ( 0 -1  0)

  ( 0  0  1)  ( 0  0  1)  ( 0  0  1)  ( 0  0  1)  ( 0  0  1)  ( 0  0  1)
  ( 0  1  0)  ( 0  1  0)  ( 0 -1  0)  ( 0 -1  0)  (-1  0  0)  (-1  0  0)
  ( 1  0  0)  (-1  0  0)  ( 1  0  0)  (-1  0  0)  ( 0  1  0)  ( 0 -1  0)

  ( 0  0 -1)  ( 0  0 -1)  ( 0  0 -1)  ( 0  0 -1)  ( 0  0 -1)  ( 0  0 -1)
  ( 1  0  0)  ( 1  0  0)  ( 0  1  0)  ( 0  1  0)  ( 0 -1  0)  ( 0 -1  0)
  ( 0  1  0)  ( 0 -1  0)  ( 1  0  0)  (-1  0  0)  ( 1  0  0)  (-1  0  0)

  ( 0  0 -1)  ( 0  0 -1)  ( 0 -1  0)  ( 0 -1  0)  ( 0 -1  0)  ( 0 -1  0)
  (-1  0  0)  (-1  0  0)  ( 1  0  0)  ( 1  0  0)  ( 0  0  1)  ( 0  0  1)
  ( 0  1  0)  ( 0 -1  0)  ( 0  0  1)  ( 0  0 -1)  ( 1  0  0)  (-1  0  0)

  ( 0 -1  0)  ( 0 -1  0)  ( 0 -1  0)  ( 0 -1  0)  (-1  0  0)  (-1  0  0)
  ( 0  0 -1)  ( 0  0 -1)  (-1  0  0)  (-1  0  0)  ( 0  1  0)  ( 0  1  0)
  ( 1  0  0)  (-1  0  0)  ( 0  0  1)  ( 0  0 -1)  ( 0  0  1)  ( 0  0 -1)

  (-1  0  0)  (-1  0  0)  (-1  0  0)  (-1  0  0)  (-1  0  0)  (-1  0  0)
  ( 0  0  1)  ( 0  0  1)  ( 0  0 -1)  ( 0  0 -1)  ( 0 -1  0)  ( 0 -1  0)
  ( 0  1  0)  ( 0 -1  0)  ( 0  1  0)  ( 0 -1  0)  ( 0  0  1)  ( 0  0 -1)

1000 k-points: 10 x 10 x 10 Monkhorst-Pack grid
35 k-points in the irreducible part of the Brillouin zone
       k-points in crystal coordinates                weights
   0:     0.05000000    0.05000000    0.05000000          8/1000
   1:     0.15000000    0.05000000    0.05000000         24/1000
   2:     0.15000000    0.15000000    0.05000000         24/1000
   3:     0.15000000    0.15000000    0.15000000          8/1000
   4:     0.25000000    0.05000000    0.05000000         24/1000
   5:     0.25000000    0.15000000    0.05000000         48/1000
   6:     0.25000000    0.15000000    0.15000000         24/1000
   7:     0.25000000    0.25000000    0.05000000         24/1000
   8:     0.25000000    0.25000000    0.15000000         24/1000
   9:     0.25000000    0.25000000    0.25000000          8/1000
          ...
  34:     0.45000000    0.45000000    0.45000000          8/1000

Wave functions: Plane wave expansion
  Cutoff energy: 500.000 eV
  Number of coefficients (min, max): 592, 612
  Pulay-stress correction: 0.000000 eV/Ang^3 (de/decut=0.000000)
  Using Numpy's FFT
  ScaLapack parameters: grid=1x1, blocksize=None
  Wavefunction extrapolation:
    Improved wavefunction reuse through dual PAW basis 

Occupation numbers: Fermi-Dirac:
  width: 0.1000  # eV
 

Eigensolver
   Davidson(niter=2) 

Densities:
  Coarse grid: 15*15*15 grid
  Fine grid: 30*30*30 grid
  Total Charge: 0.000000 

Density mixing:
  Method: difference
  Backend: pulay
  Linear mixing parameter: 0.05
  old densities: 5
  Damping of long wavelength oscillations: 50 

Hamiltonian:
  XC and Coulomb potentials evaluated on a 30*30*30 grid
  Using the LDA Exchange-Correlation functional
  External potential:
    NoExternalPotential
 

Memory estimate:
  Process memory now: 117.54 MiB
  Calculator: 15.34 MiB
    Density: 1.90 MiB
      Arrays: 0.90 MiB
      Localized functions: 0.64 MiB
      Mixer: 0.36 MiB
    Hamiltonian: 0.68 MiB
      Arrays: 0.67 MiB
      XC: 0.00 MiB
      Poisson: 0.00 MiB
      vbar: 0.01 MiB
    Wavefunctions: 12.76 MiB
      Arrays psit_nG: 9.15 MiB
      Eigensolver: 0.21 MiB
      Projections: 0.54 MiB
      Projectors: 2.41 MiB
      PW-descriptor: 0.46 MiB

Total number of cores used: 1

Number of atoms: 2
Number of atomic orbitals: 18
Number of bands in calculation: 14
Number of valence electrons: 16
Bands to converge: occupied

... initialized

Initializing position-dependent things.

Density initialized from atomic densities
Creating initial wave functions:
  14 bands from LCAO basis set

   .------.  
  /|      |  
 * |      |  
 | | Fe   |  
 | .------.  
 |/      /   
 Fe-----*    

Positions:
   0 Fe     0.000000    0.000000    0.000000    ( 0.0000,  0.0000,  2.2000)
   1 Fe     1.435000    1.435000    1.435000    ( 0.0000,  0.0000, -2.2000)

Unit cell:
           periodic     x           y           z      points  spacing
  1. axis:    yes    2.870000    0.000000    0.000000    15     0.1913
  2. axis:    yes    0.000000    2.870000    0.000000    15     0.1913
  3. axis:    yes    0.000000    0.000000    2.870000    15     0.1913

  Lengths:   2.870000   2.870000   2.870000
  Angles:   90.000000  90.000000  90.000000

Effective grid spacing dv^(1/3) = 0.1913

     iter     time        total  log10-change:  magmom
                         energy   eigst   dens
iter:   1 14:24:42   -18.165135                   -0.0000
iter:   2 14:24:43   -18.232772   -0.53  -1.56    -0.0002
iter:   3 14:24:44   -18.525217   -0.96  -1.53    -0.0002
iter:   4 14:24:45   -18.973818   -0.19  -1.31    -0.0004
iter:   5 14:24:46   -19.555999   -1.13  -1.28    -0.0004
iter:   6 14:24:46   -18.237186   -0.63  -1.15    -0.0005
iter:   7 14:24:47   -18.214159   -1.61  -1.77    -0.0011
iter:   8 14:24:48   -18.219221   -1.90  -2.21    +0.0017
iter:   9 14:24:49   -18.227680   -2.79  -2.31    +0.0024
iter:  10 14:24:50   -18.225564   -2.84  -2.39    +0.0029
iter:  11 14:24:50   -18.227484c  -3.36  -2.35    +0.0055
iter:  12 14:24:51   -18.230350c  -3.26  -2.35    +0.0123
iter:  13 14:24:52   -18.234080c  -2.96  -2.07    +0.0223
iter:  14 14:24:53   -18.232482c  -3.74  -2.22    +0.0303
iter:  15 14:24:54   -18.230881c  -3.92  -2.34    +0.0424
iter:  16 14:24:54   -18.230058c  -4.09  -2.60    +0.0702
iter:  17 14:24:55   -18.230101c  -4.31  -2.96    +0.0809
iter:  18 14:24:56   -18.230038c  -4.10  -2.66    +0.0855
iter:  19 14:24:57   -18.230008c  -4.65  -2.72    +0.0880
iter:  20 14:24:58   -18.229980c  -5.30  -3.31    +0.0830
iter:  21 14:24:58   -18.230242c  -5.02  -3.22    +0.1077
iter:  22 14:24:59   -18.229811c  -4.61  -3.06    +0.0526
iter:  23 14:25:00   -18.229853c  -4.75  -3.56    +0.0381
iter:  24 14:25:01   -18.230014c  -5.23  -3.30    +0.0631
iter:  25 14:25:02   -18.229834c  -4.22  -3.09    -0.0171
iter:  26 14:25:03   -18.229845c  -5.55  -3.28    +0.0013
iter:  27 14:25:03   -18.229897c  -5.07  -3.41    +0.0307
iter:  28 14:25:04   -18.229844c  -5.72  -3.59    +0.0117
iter:  29 14:25:05   -18.229852c  -6.07  -4.04c   +0.0068
iter:  30 14:25:06   -18.229859c  -6.75  -3.76    +0.0070
iter:  31 14:25:07   -18.229885c  -6.17  -3.76    +0.0068
iter:  32 14:25:08   -18.229878c  -7.15  -3.75    +0.0059
iter:  33 14:25:08   -18.229890c  -6.73  -3.70    +0.0069
iter:  34 14:25:09   -18.229884c  -7.31  -3.72    +0.0052
iter:  35 14:25:10   -18.229881c  -6.94  -3.69    +0.0054
iter:  36 14:25:11   -18.229883c  -6.35  -3.77    +0.0053
iter:  37 14:25:12   -18.229880c  -6.87  -3.74    +0.0050
iter:  38 14:25:12   -18.229885c  -7.40c -3.72    +0.0053
iter:  39 14:25:13   -18.229877c  -5.99  -3.72    +0.0044
iter:  40 14:25:14   -18.229876c  -6.85  -3.89    +0.0047
iter:  41 14:25:15   -18.229878c  -6.86  -3.95    +0.0050
iter:  42 14:25:16   -18.229876c  -7.69c -3.99    +0.0055
iter:  43 14:25:16   -18.229878c  -6.15  -3.99    +0.0044
iter:  44 14:25:17   -18.229876c  -7.12  -3.95    +0.0048
iter:  45 14:25:18   -18.229878c  -6.99  -4.01c   +0.0047
iter:  46 14:25:19   -18.229879c  -6.73  -4.09c   +0.0051
iter:  47 14:25:20   -18.229879c  -7.08  -4.06c   +0.0051
iter:  48 14:25:20   -18.229878c  -7.44c -4.27c   +0.0051

Converged after 48 iterations.

Dipole moment: (-0.000000, -0.000000, -0.000000) |e|*Ang

Total magnetic moment: (0.000000, 0.000000, 0.005093)
Local magnetic moments:
   0 Fe ( 0.000000,  0.000000,  1.903100)
   1 Fe ( 0.000000,  0.000000, -1.898207)

Energy contributions relative to reference atoms: (reference = -69115.878741)

Kinetic:         +7.727249
Potential:       -6.480468
External:        +0.000000
XC:             -19.490291
Entropy (-ST):   -0.180625
Local:           +0.103943
SIC:             +0.000000
--------------------------
Free energy:    -18.320191
Extrapolated:   -18.229878

Spin contamination: 1.994599 electrons
Showing only first 2 kpts
                      Up                     Down
 Kpt  Band  Eigenvalues  Occupancy  Eigenvalues  Occupancy
  0     6      9.51228    0.45959      9.51568    0.45115
  0     7      9.51228    0.45958      9.51569    0.45114
  0     8     10.34722    0.00020     10.34846    0.00020
  0     9     10.52001    0.00004     10.52134    0.00004

  1     6      9.35472    0.80433      9.35802    0.79909
  1     7      9.57927    0.30324      9.58269    0.29606
  1     8      9.99433    0.00681      9.99540    0.00674
  1     9     10.19919    0.00088     10.20042    0.00087


Fermi level: 9.49608

No gap
No difference between direct/indirect transitions
Writing to antiferro_U0.5.gpw (mode='')

Timing:                              incl.     excl.
-----------------------------------------------------------
Hamiltonian:                         0.030     0.000   0.0% |
 Atomic:                             0.024     0.002   0.0% |
  XC Correction:                     0.023     0.023   0.1% |
 Calculate atomic Hamiltonians:      0.001     0.001   0.0% |
 Communicate:                        0.000     0.000   0.0% |
 Initialize Hamiltonian:             0.000     0.000   0.0% |
 Poisson:                            0.000     0.000   0.0% |
 XC 3D grid:                         0.004     0.004   0.0% |
LCAO initialization:                 0.969     0.014   0.0% |
 LCAO eigensolver:                   0.304     0.001   0.0% |
  Calculate projections:             0.001     0.001   0.0% |
  DenseAtomicCorrection:             0.004     0.004   0.0% |
  Distribute overlap matrix:         0.001     0.001   0.0% |
  Orbital Layouts:                   0.008     0.008   0.0% |
  Potential matrix:                  0.278     0.278   0.7% |
  Sum over cells:                    0.011     0.011   0.0% |
 LCAO to grid:                       0.521     0.521   1.3% ||
 Set positions (LCAO WFS):           0.130     0.024   0.1% |
  Basic WFS set positions:           0.001     0.001   0.0% |
  Basis functions set positions:     0.000     0.000   0.0% |
  P tci:                             0.040     0.040   0.1% |
  ST tci:                            0.059     0.059   0.1% |
  mktci:                             0.005     0.005   0.0% |
PWDescriptor:                        0.003     0.003   0.0% |
SCF-cycle:                          38.885     0.335   0.8% |
 Davidson:                          33.745     3.971   9.9% |---|
  Apply H:                           6.369     6.163  15.3% |-----|
   HMM T:                            0.205     0.205   0.5% |
  Subspace diag:                     7.344     0.095   0.2% |
   calc_h_matrix:                    6.746     0.325   0.8% |
    Apply H:                         6.421     6.200  15.4% |-----|
     HMM T:                          0.221     0.221   0.5% |
   diagonalize:                      0.254     0.254   0.6% |
   rotate_psi:                       0.250     0.250   0.6% |
  calc. matrices:                   14.769     1.894   4.7% |-|
   Apply H:                         12.876    12.466  31.0% |-----------|
    HMM T:                           0.409     0.409   1.0% |
  diagonalize:                       0.872     0.872   2.2% ||
  rotate_psi:                        0.420     0.420   1.0% |
 Density:                            3.439     0.000   0.0% |
  Atomic density matrices:           0.104     0.104   0.3% |
  Mix:                               0.074     0.074   0.2% |
  Multipole moments:                 0.002     0.002   0.0% |
  Pseudo density:                    3.258     3.101   7.7% |--|
   Symmetrize density:               0.157     0.157   0.4% |
 Hamiltonian:                        1.343     0.009   0.0% |
  Atomic:                            1.127     0.079   0.2% |
   XC Correction:                    1.048     1.048   2.6% ||
  Calculate atomic Hamiltonians:     0.017     0.017   0.0% |
  Communicate:                       0.000     0.000   0.0% |
  Poisson:                           0.003     0.003   0.0% |
  XC 3D grid:                        0.186     0.186   0.5% |
 Orthonormalize:                     0.023     0.002   0.0% |
  calc_s_matrix:                     0.005     0.005   0.0% |
  inverse-cholesky:                  0.003     0.003   0.0% |
  projections:                       0.010     0.010   0.0% |
  rotate_psi_s:                      0.003     0.003   0.0% |
Set symmetry:                        0.038     0.038   0.1% |
Other:                               0.354     0.354   0.9% |
-----------------------------------------------------------
Total:                                        40.279 100.0%

Memory usage: 175.66 MiB
Date: Fri Apr 11 14:25:21 2025
