
  ___ ___ ___ _ _ _  
 |   |   |_  | | | | 
 | | | | | . | | | | 
 |__ |  _|___|_____|  25.1.0
 |___|_|             

User:   georgios-vourvachakis@georgios-vourvachakis-82K2
Date:   Sun Apr  6 22:08:19 2025
Arch:   x86_64
Pid:    589600
CWD:    /home/georgios-vourvachakis/Desktop/DFT_codes
Python: 3.12.3
gpaw:   /home/georgios-vourvachakis/Desktop/DFT_codes/.venv/lib/python3.12/site-packages/gpaw
_gpaw:  /home/georgios-vourvachakis/Desktop/DFT_codes/.venv/lib/python3.12/site-packages/
        _gpaw.cpython-312-x86_64-linux-gnu.so
ase:    /home/georgios-vourvachakis/Desktop/DFT_codes/.venv/lib/python3.12/site-packages/ase (version 3.24.0)
numpy:  /home/georgios-vourvachakis/Desktop/DFT_codes/.venv/lib/python3.12/site-packages/numpy (version 2.2.3)
scipy:  /home/georgios-vourvachakis/Desktop/DFT_codes/.venv/lib/python3.12/site-packages/scipy (version 1.15.1)
libxc:  5.2.3
units:  Angstrom and eV
cores: 1
OpenMP: False
OMP_NUM_THREADS: 1

Input parameters:
  kpts: [6 6 2]
  mode: {ecut: 480.0,
         name: pw}
  xc: PBE

System changes: positions, numbers, cell, pbc, initial_charges, initial_magmoms 

Initialize ...

species:
  W:
    name: Tungsten
    id: 3ed563b7d19992259c4d7db283f2ff78
    Z: 74.0
    valence: 14
    core: 60
    charge: 0.0
    file: /home/georgios-vourvachakis/Desktop/DFT_codes/gpaw_datasets/gpaw-setups-0.9.20000/W.PBE.gz
    compensation charges: {type: gauss,
                           rc: 0.40,
                           lmax: 2}
    cutoffs: {filter: 2.36,
              core: 3.02}
    projectors:
      #              energy  rcut
      - 5s(2.00)   -78.830   1.344
      - 6s(2.00)    -5.697   1.344
      - 5p(6.00)   -43.233   1.355
      - 6p(0.00)    -1.367   1.355
      - 5d(4.00)    -4.494   1.228
      -  d          22.717   1.228
  
    # Using partial waves for W as LCAO basis

  Te:
    name: Tellurium
    id: e44b9ef4772d7e5a1c6a47e6d6496588
    Z: 52.0
    valence: 6
    core: 46
    charge: 0.0
    file: /home/georgios-vourvachakis/Desktop/DFT_codes/gpaw_datasets/gpaw-setups-0.9.20000/Te.PBE.gz
    compensation charges: {type: gauss,
                           rc: 0.36,
                           lmax: 2}
    cutoffs: {filter: 2.09,
              core: 3.17}
    projectors:
      #              energy  rcut
      - 5s(2.00)   -15.089   1.180
      - 5p(4.00)    -5.955   1.196
      -  s          12.123   1.180
      -  p          21.256   1.196
      -  d           0.000   1.238
  
    # Using partial waves for Te as LCAO basis

Reference energy: -1616706.077045  # eV

Spin-paired calculation

Convergence criteria:
 Maximum [total energy] change in last 3 cyles: 0.0005 eV / valence electron
 Maximum integral of absolute [dens]ity change: 0.0001 electrons / valence electron
 Maximum integral of absolute [eigenst]ate change: 4e-08 eV^2 / valence electron
 Maximum number of scf [iter]ations: 333
 (Square brackets indicate name in SCF output, whereas a 'c' in
 the SCF output indicates the quantity has converged.)

Symmetries present (total): 6

  ( 1  1  0)  ( 1  0  0)  ( 0  1  0)  ( 0 -1  0)  (-1  0  0)  (-1 -1  0)
  ( 0 -1  0)  ( 0  1  0)  (-1 -1  0)  (-1  0  0)  ( 1  1  0)  ( 1  0  0)
  ( 0  0  1)  ( 0  0  1)  ( 0  0  1)  ( 0  0  1)  ( 0  0  1)  ( 0  0  1)
Note: your k-points are not as symmetric as your crystal!

72 k-points: 6 x 6 x 2 Monkhorst-Pack grid
21 k-points in the irreducible part of the Brillouin zone
       k-points in crystal coordinates                weights
   0:     0.08333333   -0.08333333   -0.25000000          2/72
   1:     0.08333333   -0.08333333    0.25000000          2/72
   2:     0.08333333    0.08333333    0.25000000          4/72
   3:     0.25000000   -0.25000000   -0.25000000          2/72
   4:     0.25000000   -0.25000000    0.25000000          2/72
   5:     0.25000000   -0.08333333   -0.25000000          4/72
   6:     0.25000000   -0.08333333    0.25000000          4/72
   7:     0.25000000    0.08333333   -0.25000000          4/72
   8:     0.25000000    0.08333333    0.25000000          4/72
   9:     0.25000000    0.25000000    0.25000000          4/72
          ...
  20:     0.41666667    0.41666667    0.25000000          4/72

Wave functions: Plane wave expansion
  Cutoff energy: 480.000 eV
  Number of coefficients (min, max): 3492, 3517
  Pulay-stress correction: 0.000000 eV/Ang^3 (de/decut=0.000000)
  Using Numpy's FFT
  ScaLapack parameters: grid=1x1, blocksize=None
  Wavefunction extrapolation:
    Improved wavefunction reuse through dual PAW basis 

Occupation numbers: Fermi-Dirac:
  width: 0.1000  # eV
 

Eigensolver
   Davidson(niter=2) 

Densities:
  Coarse grid: 18*18*72 grid
  Fine grid: 36*36*144 grid
  Total Charge: 0.000000 

Density mixing:
  Method: separate
  Backend: pulay
  Linear mixing parameter: 0.05
  old densities: 5
  Damping of long wavelength oscillations: 50 

Hamiltonian:
  XC and Coulomb potentials evaluated on a 36*36*144 grid
  Using the PBE Exchange-Correlation functional
  External potential:
    NoExternalPotential
 

XC parameters: PBE with 2 nearest neighbor stencil

Memory estimate:
  Process memory now: 308.43 MiB
  Calculator: 71.45 MiB
    Density: 11.07 MiB
      Arrays: 4.63 MiB
      Localized functions: 4.66 MiB
      Mixer: 1.78 MiB
    Hamiltonian: 3.14 MiB
      Arrays: 3.03 MiB
      XC: 0.00 MiB
      Poisson: 0.00 MiB
      vbar: 0.11 MiB
    Wavefunctions: 57.24 MiB
      Arrays psit_nG: 40.57 MiB
      Eigensolver: 2.40 MiB
      Projections: 1.02 MiB
      Projectors: 11.23 MiB
      PW-descriptor: 2.02 MiB

Total number of cores used: 1

Number of atoms: 6
Number of atomic orbitals: 42
Number of bands in calculation: 36
Number of valence electrons: 52
Bands to converge: occupied

... initialized

Initializing position-dependent things.

Density initialized from atomic densities
Creating initial wave functions:
  36 bands from LCAO basis set

                  
                  
                  
                  
                  
       Te         
                  
                  
                  
                  
                  
                  
         Te       
                  
                  
                  
       W          
                  
                  
                  
                  
                  
                  
         W        
                  
         Te       
                  
                  
                  
                  
                  
                  
                  
                  
                  
       Te         
                  
                  
                  
                  

Positions:
   0 W      1.735500    1.001991    3.517500    ( 0.0000,  0.0000,  0.0000)
   1 W      1.735500   -1.001991   10.552500    ( 0.0000,  0.0000,  0.0000)
   2 Te     1.735500    1.001991   12.240900    ( 0.0000,  0.0000,  0.0000)
   3 Te     1.735500   -1.001991   -5.205900    ( 0.0000,  0.0000,  0.0000)
   4 Te     1.735500    1.001991    1.829100    ( 0.0000,  0.0000,  0.0000)
   5 Te     1.735500   -1.001991   19.275900    ( 0.0000,  0.0000,  0.0000)

Unit cell:
           periodic     x           y           z      points  spacing
  1. axis:    yes    1.735500   -3.005974    0.000000    18     0.1670
  2. axis:    yes    1.735500    3.005974    0.000000    18     0.1670
  3. axis:    yes    0.000000    0.000000   14.070000    72     0.1954

  Lengths:   3.471000   3.471000  14.070000
  Angles:   90.000000  90.000000 120.000000

Effective grid spacing dv^(1/3) = 0.1846

     iter     time        total  log10-change:
                         energy   eigst   dens
iter:   1 22:08:27     2.723967
iter:   2 22:08:31     4.744875   -0.71  -0.96
iter:   3 22:08:35     6.055136   -1.25  -1.11
iter:   4 22:08:39     6.628409   -1.44  -1.23
iter:   5 22:08:43     6.946528   -1.65  -1.41
iter:   6 22:08:47     6.950406   -2.53  -1.86
iter:   7 22:08:50     6.949912c  -3.52  -1.90
iter:   8 22:08:54     6.945127c  -2.80  -1.90
iter:   9 22:08:58     6.939091c  -3.62  -2.14
iter:  10 22:09:02     6.939331c  -4.29  -2.12
iter:  11 22:09:06     6.940206c  -3.32  -2.11
iter:  12 22:09:10     6.942359c  -3.02  -2.13
iter:  13 22:09:15     6.942112c  -3.56  -2.10
iter:  14 22:09:19     6.944338c  -3.28  -2.24
iter:  15 22:09:23     6.945923c  -4.42  -2.44
iter:  16 22:09:27     6.948704c  -4.14  -2.52
iter:  17 22:09:32     6.948972c  -5.07  -2.70
iter:  18 22:09:38     6.949344c  -4.56  -2.74
iter:  19 22:09:42     6.949412c  -5.46  -3.27
iter:  20 22:09:46     6.949377c  -5.29  -3.38
iter:  21 22:09:50     6.949337c  -6.12  -3.53
iter:  22 22:09:54     6.949329c  -6.85  -3.71
iter:  23 22:09:57     6.949305c  -6.50  -3.79
iter:  24 22:10:01     6.949314c  -7.35  -4.19c
iter:  25 22:10:05     6.949330c  -7.81c -4.31c

Converged after 25 iterations.

Dipole moment: (0.000000, -0.000000, -0.161096) |e|*Ang

Energy contributions relative to reference atoms: (reference = -1616706.077045)

Kinetic:       +543.062624
Potential:     -457.279729
External:        +0.000000
XC:             -77.201137
Entropy (-ST):   -0.065789
Local:           -1.599534
SIC:             +0.000000
--------------------------
Free energy:     +6.916436
Extrapolated:    +6.949330

Showing only first 2 kpts
 Kpt  Band  Eigenvalues  Occupancy
  0    24      7.90250    2.00000
  0    25      9.03708    1.76618
  0    26     10.69265    0.00000
  0    27     10.81992    0.00000

  1    24      7.90250    2.00000
  1    25      9.03708    1.76618
  1    26     10.69265    0.00000
  1    27     10.81992    0.00000


Fermi level: 9.23929

No gap
No difference between direct/indirect transitions
Timing:                              incl.     excl.
-----------------------------------------------------------
Hamiltonian:                         0.163     0.000   0.0% |
 Atomic:                             0.116     0.001   0.0% |
  XC Correction:                     0.115     0.115   0.1% |
 Calculate atomic Hamiltonians:      0.008     0.008   0.0% |
 Communicate:                        0.000     0.000   0.0% |
 Initialize Hamiltonian:             0.000     0.000   0.0% |
 Poisson:                            0.000     0.000   0.0% |
 XC 3D grid:                         0.039     0.039   0.0% |
LCAO initialization:                 3.323     0.050   0.0% |
 LCAO eigensolver:                   1.355     0.001   0.0% |
  Calculate projections:             0.006     0.006   0.0% |
  DenseAtomicCorrection:             0.011     0.011   0.0% |
  Distribute overlap matrix:         0.001     0.001   0.0% |
  Orbital Layouts:                   0.727     0.727   0.7% |
  Potential matrix:                  0.160     0.160   0.2% |
  Sum over cells:                    0.450     0.450   0.4% |
 LCAO to grid:                       1.765     1.765   1.7% ||
 Set positions (LCAO WFS):           0.153     0.029   0.0% |
  Basic WFS set positions:           0.000     0.000   0.0% |
  Basis functions set positions:     0.000     0.000   0.0% |
  P tci:                             0.071     0.071   0.1% |
  ST tci:                            0.050     0.050   0.0% |
  mktci:                             0.004     0.004   0.0% |
PWDescriptor:                        0.011     0.011   0.0% |
SCF-cycle:                         102.027     0.248   0.2% |
 Davidson:                          89.282     8.990   8.5% |--|
  Apply H:                          16.285    16.075  15.2% |-----|
   HMM T:                            0.210     0.210   0.2% |
  Subspace diag:                    17.957     0.033   0.0% |
   calc_h_matrix:                   16.730     0.691   0.7% |
    Apply H:                        16.040    15.819  15.0% |-----|
     HMM T:                          0.221     0.221   0.2% |
   diagonalize:                      0.191     0.191   0.2% |
   rotate_psi:                       1.003     1.003   0.9% |
  calc. matrices:                   36.249     4.062   3.8% |-|
   Apply H:                         32.187    31.766  30.0% |-----------|
    HMM T:                           0.421     0.421   0.4% |
  diagonalize:                       7.829     7.829   7.4% |--|
  rotate_psi:                        1.971     1.971   1.9% ||
 Density:                            8.354     0.000   0.0% |
  Atomic density matrices:           0.044     0.044   0.0% |
  Mix:                               2.334     2.334   2.2% ||
  Multipole moments:                 0.002     0.002   0.0% |
  Pseudo density:                    5.973     5.939   5.6% |-|
   Symmetrize density:               0.034     0.034   0.0% |
 Hamiltonian:                        4.030     0.020   0.0% |
  Atomic:                            2.834     0.014   0.0% |
   XC Correction:                    2.820     2.820   2.7% ||
  Calculate atomic Hamiltonians:     0.198     0.198   0.2% |
  Communicate:                       0.000     0.000   0.0% |
  Poisson:                           0.011     0.011   0.0% |
  XC 3D grid:                        0.966     0.966   0.9% |
 Orthonormalize:                     0.114     0.001   0.0% |
  calc_s_matrix:                     0.015     0.015   0.0% |
  inverse-cholesky:                  0.003     0.003   0.0% |
  projections:                       0.073     0.073   0.1% |
  rotate_psi_s:                      0.022     0.022   0.0% |
Set symmetry:                        0.002     0.002   0.0% |
Other:                               0.238     0.238   0.2% |
-----------------------------------------------------------
Total:                                       105.765 100.0%

Memory usage: 314.50 MiB
Date: Sun Apr  6 22:10:05 2025
