
  ___ ___ ___ _ _ _  
 |   |   |_  | | | | 
 | | | | | . | | | | 
 |__ |  _|___|_____|  25.1.0
 |___|_|             

User:   georgios-vourvachakis@georgios-vourvachakis-82K2
Date:   Sun Apr  6 21:58:32 2025
Arch:   x86_64
Pid:    589600
CWD:    /home/georgios-vourvachakis/Desktop/DFT_codes
Python: 3.12.3
gpaw:   /home/georgios-vourvachakis/Desktop/DFT_codes/.venv/lib/python3.12/site-packages/gpaw
_gpaw:  /home/georgios-vourvachakis/Desktop/DFT_codes/.venv/lib/python3.12/site-packages/
        _gpaw.cpython-312-x86_64-linux-gnu.so
ase:    /home/georgios-vourvachakis/Desktop/DFT_codes/.venv/lib/python3.12/site-packages/ase (version 3.24.0)
numpy:  /home/georgios-vourvachakis/Desktop/DFT_codes/.venv/lib/python3.12/site-packages/numpy (version 2.2.3)
scipy:  /home/georgios-vourvachakis/Desktop/DFT_codes/.venv/lib/python3.12/site-packages/scipy (version 1.15.1)
libxc:  5.2.3
units:  Angstrom and eV
cores: 1
OpenMP: False
OMP_NUM_THREADS: 1

Input parameters:
  kpts: [6 6 2]
  mode: {ecut: 480.0,
         name: pw}
  xc: PBE

System changes: positions, numbers, cell, pbc, initial_charges, initial_magmoms 

Initialize ...

species:
  W:
    name: Tungsten
    id: 3ed563b7d19992259c4d7db283f2ff78
    Z: 74.0
    valence: 14
    core: 60
    charge: 0.0
    file: /home/georgios-vourvachakis/Desktop/DFT_codes/gpaw_datasets/gpaw-setups-0.9.20000/W.PBE.gz
    compensation charges: {type: gauss,
                           rc: 0.40,
                           lmax: 2}
    cutoffs: {filter: 2.36,
              core: 3.02}
    projectors:
      #              energy  rcut
      - 5s(2.00)   -78.830   1.344
      - 6s(2.00)    -5.697   1.344
      - 5p(6.00)   -43.233   1.355
      - 6p(0.00)    -1.367   1.355
      - 5d(4.00)    -4.494   1.228
      -  d          22.717   1.228
  
    # Using partial waves for W as LCAO basis

  Te:
    name: Tellurium
    id: e44b9ef4772d7e5a1c6a47e6d6496588
    Z: 52.0
    valence: 6
    core: 46
    charge: 0.0
    file: /home/georgios-vourvachakis/Desktop/DFT_codes/gpaw_datasets/gpaw-setups-0.9.20000/Te.PBE.gz
    compensation charges: {type: gauss,
                           rc: 0.36,
                           lmax: 2}
    cutoffs: {filter: 2.09,
              core: 3.17}
    projectors:
      #              energy  rcut
      - 5s(2.00)   -15.089   1.180
      - 5p(4.00)    -5.955   1.196
      -  s          12.123   1.180
      -  p          21.256   1.196
      -  d           0.000   1.238
  
    # Using partial waves for Te as LCAO basis

Reference energy: -1616706.077045  # eV

Spin-paired calculation

Convergence criteria:
 Maximum [total energy] change in last 3 cyles: 0.0005 eV / valence electron
 Maximum integral of absolute [dens]ity change: 0.0001 electrons / valence electron
 Maximum integral of absolute [eigenst]ate change: 4e-08 eV^2 / valence electron
 Maximum number of scf [iter]ations: 333
 (Square brackets indicate name in SCF output, whereas a 'c' in
 the SCF output indicates the quantity has converged.)

Symmetries present (total): 6

  ( 1  1  0)  ( 1  0  0)  ( 0  1  0)  ( 0 -1  0)  (-1  0  0)  (-1 -1  0)
  ( 0 -1  0)  ( 0  1  0)  (-1 -1  0)  (-1  0  0)  ( 1  1  0)  ( 1  0  0)
  ( 0  0  1)  ( 0  0  1)  ( 0  0  1)  ( 0  0  1)  ( 0  0  1)  ( 0  0  1)
Note: your k-points are not as symmetric as your crystal!

72 k-points: 6 x 6 x 2 Monkhorst-Pack grid
21 k-points in the irreducible part of the Brillouin zone
       k-points in crystal coordinates                weights
   0:     0.08333333   -0.08333333   -0.25000000          2/72
   1:     0.08333333   -0.08333333    0.25000000          2/72
   2:     0.08333333    0.08333333    0.25000000          4/72
   3:     0.25000000   -0.25000000   -0.25000000          2/72
   4:     0.25000000   -0.25000000    0.25000000          2/72
   5:     0.25000000   -0.08333333   -0.25000000          4/72
   6:     0.25000000   -0.08333333    0.25000000          4/72
   7:     0.25000000    0.08333333   -0.25000000          4/72
   8:     0.25000000    0.08333333    0.25000000          4/72
   9:     0.25000000    0.25000000    0.25000000          4/72
          ...
  20:     0.41666667    0.41666667    0.25000000          4/72

Wave functions: Plane wave expansion
  Cutoff energy: 480.000 eV
  Number of coefficients (min, max): 3431, 3464
  Pulay-stress correction: 0.000000 eV/Ang^3 (de/decut=0.000000)
  Using Numpy's FFT
  ScaLapack parameters: grid=1x1, blocksize=None
  Wavefunction extrapolation:
    Improved wavefunction reuse through dual PAW basis 

Occupation numbers: Fermi-Dirac:
  width: 0.1000  # eV
 

Eigensolver
   Davidson(niter=2) 

Densities:
  Coarse grid: 18*18*72 grid
  Fine grid: 36*36*144 grid
  Total Charge: 0.000000 

Density mixing:
  Method: separate
  Backend: pulay
  Linear mixing parameter: 0.05
  old densities: 5
  Damping of long wavelength oscillations: 50 

Hamiltonian:
  XC and Coulomb potentials evaluated on a 36*36*144 grid
  Using the PBE Exchange-Correlation functional
  External potential:
    NoExternalPotential
 

XC parameters: PBE with 2 nearest neighbor stencil

Memory estimate:
  Process memory now: 281.75 MiB
  Calculator: 70.51 MiB
    Density: 10.98 MiB
      Arrays: 4.63 MiB
      Localized functions: 4.58 MiB
      Mixer: 1.78 MiB
    Hamiltonian: 3.14 MiB
      Arrays: 3.03 MiB
      XC: 0.00 MiB
      Poisson: 0.00 MiB
      vbar: 0.11 MiB
    Wavefunctions: 56.39 MiB
      Arrays psit_nG: 39.96 MiB
      Eigensolver: 2.37 MiB
      Projections: 1.02 MiB
      Projectors: 11.05 MiB
      PW-descriptor: 2.00 MiB

Total number of cores used: 1

Number of atoms: 6
Number of atomic orbitals: 42
Number of bands in calculation: 36
Number of valence electrons: 52
Bands to converge: occupied

... initialized

Initializing position-dependent things.

Density initialized from atomic densities
Creating initial wave functions:
  36 bands from LCAO basis set

                  
                  
                  
                  
                  
       Te         
                  
                  
                  
                  
                  
                  
         Te       
                  
                  
                  
       W          
                  
                  
                  
                  
                  
                  
         W        
                  
         Te       
                  
                  
                  
                  
                  
                  
                  
                  
                  
       Te         
                  
                  
                  
                  

Positions:
   0 W      1.723000    0.994775    3.511250    ( 0.0000,  0.0000,  0.0000)
   1 W      1.723000   -0.994775   10.533750    ( 0.0000,  0.0000,  0.0000)
   2 Te     1.723000    0.994775   12.219150    ( 0.0000,  0.0000,  0.0000)
   3 Te     1.723000   -0.994775   -5.196650    ( 0.0000,  0.0000,  0.0000)
   4 Te     1.723000    0.994775    1.825850    ( 0.0000,  0.0000,  0.0000)
   5 Te     1.723000   -0.994775   19.241650    ( 0.0000,  0.0000,  0.0000)

Unit cell:
           periodic     x           y           z      points  spacing
  1. axis:    yes    1.723000   -2.984324    0.000000    18     0.1658
  2. axis:    yes    1.723000    2.984324    0.000000    18     0.1658
  3. axis:    yes    0.000000    0.000000   14.045000    72     0.1951

  Lengths:   3.446000   3.446000  14.045000
  Angles:   90.000000  90.000000 120.000000

Effective grid spacing dv^(1/3) = 0.1836

     iter     time        total  log10-change:
                         energy   eigst   dens
iter:   1 21:58:39     3.277651
iter:   2 21:58:43     5.331568   -0.71  -0.96
iter:   3 21:58:46     6.683020   -1.24  -1.11
iter:   4 21:58:50     7.243574   -1.43  -1.24
iter:   5 21:58:54     7.565523   -1.66  -1.41
iter:   6 21:58:57     7.569076   -2.54  -1.86
iter:   7 21:59:01     7.567007c  -3.50  -1.91
iter:   8 21:59:04     7.562353c  -2.72  -1.89
iter:   9 21:59:08     7.561331c  -3.79  -2.21
iter:  10 21:59:12     7.567435c  -3.33  -2.23
iter:  11 21:59:15     7.567097c  -3.94  -2.45
iter:  12 21:59:19     7.563426c  -3.68  -2.51
iter:  13 21:59:22     7.564572c  -4.62  -2.48
iter:  14 21:59:26     7.567125c  -4.28  -2.51
iter:  15 21:59:30     7.567345c  -4.29  -2.61
iter:  16 21:59:34     7.566630c  -4.42  -2.62
iter:  17 21:59:37     7.566338c  -4.77  -2.63
iter:  18 21:59:41     7.567011c  -4.35  -2.69
iter:  19 21:59:44     7.567020c  -5.24  -3.16
iter:  20 21:59:48     7.567024c  -5.19  -3.22
iter:  21 21:59:52     7.567088c  -6.10  -3.30
iter:  22 21:59:56     7.567146c  -5.41  -3.46
iter:  23 22:00:00     7.567168c  -6.83  -3.81
iter:  24 22:00:03     7.567147c  -6.86  -3.78
iter:  25 22:00:07     7.567192c  -6.86  -3.84
iter:  26 22:00:11     7.567204c  -7.74c -3.95
iter:  27 22:00:14     7.567211c  -7.76c -4.01c

Converged after 27 iterations.

Dipole moment: (-0.000000, 0.000000, -0.155415) |e|*Ang

Energy contributions relative to reference atoms: (reference = -1616706.077045)

Kinetic:       +551.482258
Potential:     -463.904725
External:        +0.000000
XC:             -78.401752
Entropy (-ST):   -0.065798
Local:           -1.575671
SIC:             +0.000000
--------------------------
Free energy:     +7.534312
Extrapolated:    +7.567211

Showing only first 2 kpts
 Kpt  Band  Eigenvalues  Occupancy
  0    24      8.07677    2.00000
  0    25      9.21271    1.82151
  0    26     10.97948    0.00000
  0    27     11.10861    0.00000

  1    24      8.07677    2.00000
  1    25      9.21271    1.82151
  1    26     10.97948    0.00000
  1    27     11.10861    0.00000


Fermi level: 9.44500

No gap
No difference between direct/indirect transitions
Timing:                              incl.     excl.
-----------------------------------------------------------
Hamiltonian:                         0.198     0.000   0.0% |
 Atomic:                             0.113     0.001   0.0% |
  XC Correction:                     0.112     0.112   0.1% |
 Calculate atomic Hamiltonians:      0.008     0.008   0.0% |
 Communicate:                        0.000     0.000   0.0% |
 Initialize Hamiltonian:             0.000     0.000   0.0% |
 Poisson:                            0.000     0.000   0.0% |
 XC 3D grid:                         0.076     0.076   0.1% |
LCAO initialization:                 3.488     0.049   0.0% |
 LCAO eigensolver:                   1.638     0.001   0.0% |
  Calculate projections:             0.002     0.002   0.0% |
  DenseAtomicCorrection:             0.004     0.004   0.0% |
  Distribute overlap matrix:         0.000     0.000   0.0% |
  Orbital Layouts:                   0.880     0.880   0.9% |
  Potential matrix:                  0.167     0.167   0.2% |
  Sum over cells:                    0.584     0.584   0.6% |
 LCAO to grid:                       1.647     1.647   1.6% ||
 Set positions (LCAO WFS):           0.153     0.029   0.0% |
  Basic WFS set positions:           0.000     0.000   0.0% |
  Basis functions set positions:     0.000     0.000   0.0% |
  P tci:                             0.070     0.070   0.1% |
  ST tci:                            0.050     0.050   0.0% |
  mktci:                             0.004     0.004   0.0% |
PWDescriptor:                        0.011     0.011   0.0% |
SCF-cycle:                          98.649     0.246   0.2% |
 Davidson:                          85.876     8.683   8.5% |--|
  Apply H:                          16.756    16.561  16.1% |-----|
   HMM T:                            0.195     0.195   0.2% |
  Subspace diag:                    18.409     0.030   0.0% |
   calc_h_matrix:                   17.199     0.668   0.7% |
    Apply H:                        16.532    16.321  15.9% |-----|
     HMM T:                          0.211     0.211   0.2% |
   diagonalize:                      0.191     0.191   0.2% |
   rotate_psi:                       0.988     0.988   1.0% |
  calc. matrices:                   37.429     4.055   4.0% |-|
   Apply H:                         33.374    32.974  32.2% |------------|
    HMM T:                           0.400     0.400   0.4% |
  diagonalize:                       2.675     2.675   2.6% ||
  rotate_psi:                        1.924     1.924   1.9% ||
 Density:                            8.116     0.000   0.0% |
  Atomic density matrices:           0.046     0.046   0.0% |
  Mix:                               1.863     1.863   1.8% ||
  Multipole moments:                 0.002     0.002   0.0% |
  Pseudo density:                    6.205     6.168   6.0% |-|
   Symmetrize density:               0.036     0.036   0.0% |
 Hamiltonian:                        4.311     0.018   0.0% |
  Atomic:                            3.054     0.014   0.0% |
   XC Correction:                    3.040     3.040   3.0% ||
  Calculate atomic Hamiltonians:     0.177     0.177   0.2% |
  Communicate:                       0.000     0.000   0.0% |
  Poisson:                           0.011     0.011   0.0% |
  XC 3D grid:                        1.050     1.050   1.0% |
 Orthonormalize:                     0.100     0.001   0.0% |
  calc_s_matrix:                     0.014     0.014   0.0% |
  inverse-cholesky:                  0.002     0.002   0.0% |
  projections:                       0.064     0.064   0.1% |
  rotate_psi_s:                      0.019     0.019   0.0% |
Set symmetry:                        0.003     0.003   0.0% |
Other:                               0.211     0.211   0.2% |
-----------------------------------------------------------
Total:                                       102.560 100.0%

Memory usage: 289.54 MiB
Date: Sun Apr  6 22:00:14 2025
