
  ___ ___ ___ _ _ _  
 |   |   |_  | | | | 
 | | | | | . | | | | 
 |__ |  _|___|_____|  25.1.0
 |___|_|             

User:   georgios-vourvachakis@georgios-vourvachakis-82K2
Date:   Sun Apr  6 22:29:21 2025
Arch:   x86_64
Pid:    589600
CWD:    /home/georgios-vourvachakis/Desktop/DFT_codes
Python: 3.12.3
gpaw:   /home/georgios-vourvachakis/Desktop/DFT_codes/.venv/lib/python3.12/site-packages/gpaw
_gpaw:  /home/georgios-vourvachakis/Desktop/DFT_codes/.venv/lib/python3.12/site-packages/
        _gpaw.cpython-312-x86_64-linux-gnu.so
ase:    /home/georgios-vourvachakis/Desktop/DFT_codes/.venv/lib/python3.12/site-packages/ase (version 3.24.0)
numpy:  /home/georgios-vourvachakis/Desktop/DFT_codes/.venv/lib/python3.12/site-packages/numpy (version 2.2.3)
scipy:  /home/georgios-vourvachakis/Desktop/DFT_codes/.venv/lib/python3.12/site-packages/scipy (version 1.15.1)
libxc:  5.2.3
units:  Angstrom and eV
cores: 1
OpenMP: False
OMP_NUM_THREADS: 1

Input parameters:
  kpts: [6 6 2]
  mode: {ecut: 480.0,
         name: pw}
  xc: PBE

System changes: positions, numbers, cell, pbc, initial_charges, initial_magmoms 

Initialize ...

species:
  W:
    name: Tungsten
    id: 3ed563b7d19992259c4d7db283f2ff78
    Z: 74.0
    valence: 14
    core: 60
    charge: 0.0
    file: /home/georgios-vourvachakis/Desktop/DFT_codes/gpaw_datasets/gpaw-setups-0.9.20000/W.PBE.gz
    compensation charges: {type: gauss,
                           rc: 0.40,
                           lmax: 2}
    cutoffs: {filter: 2.36,
              core: 3.02}
    projectors:
      #              energy  rcut
      - 5s(2.00)   -78.830   1.344
      - 6s(2.00)    -5.697   1.344
      - 5p(6.00)   -43.233   1.355
      - 6p(0.00)    -1.367   1.355
      - 5d(4.00)    -4.494   1.228
      -  d          22.717   1.228
  
    # Using partial waves for W as LCAO basis

  Te:
    name: Tellurium
    id: e44b9ef4772d7e5a1c6a47e6d6496588
    Z: 52.0
    valence: 6
    core: 46
    charge: 0.0
    file: /home/georgios-vourvachakis/Desktop/DFT_codes/gpaw_datasets/gpaw-setups-0.9.20000/Te.PBE.gz
    compensation charges: {type: gauss,
                           rc: 0.36,
                           lmax: 2}
    cutoffs: {filter: 2.09,
              core: 3.17}
    projectors:
      #              energy  rcut
      - 5s(2.00)   -15.089   1.180
      - 5p(4.00)    -5.955   1.196
      -  s          12.123   1.180
      -  p          21.256   1.196
      -  d           0.000   1.238
  
    # Using partial waves for Te as LCAO basis

Reference energy: -1616706.077045  # eV

Spin-paired calculation

Convergence criteria:
 Maximum [total energy] change in last 3 cyles: 0.0005 eV / valence electron
 Maximum integral of absolute [dens]ity change: 0.0001 electrons / valence electron
 Maximum integral of absolute [eigenst]ate change: 4e-08 eV^2 / valence electron
 Maximum number of scf [iter]ations: 333
 (Square brackets indicate name in SCF output, whereas a 'c' in
 the SCF output indicates the quantity has converged.)

Symmetries present (total): 6

  ( 1  1  0)  ( 1  0  0)  ( 0  1  0)  ( 0 -1  0)  (-1  0  0)  (-1 -1  0)
  ( 0 -1  0)  ( 0  1  0)  (-1 -1  0)  (-1  0  0)  ( 1  1  0)  ( 1  0  0)
  ( 0  0  1)  ( 0  0  1)  ( 0  0  1)  ( 0  0  1)  ( 0  0  1)  ( 0  0  1)
Note: your k-points are not as symmetric as your crystal!

72 k-points: 6 x 6 x 2 Monkhorst-Pack grid
21 k-points in the irreducible part of the Brillouin zone
       k-points in crystal coordinates                weights
   0:     0.08333333   -0.08333333   -0.25000000          2/72
   1:     0.08333333   -0.08333333    0.25000000          2/72
   2:     0.08333333    0.08333333    0.25000000          4/72
   3:     0.25000000   -0.25000000   -0.25000000          2/72
   4:     0.25000000   -0.25000000    0.25000000          2/72
   5:     0.25000000   -0.08333333   -0.25000000          4/72
   6:     0.25000000   -0.08333333    0.25000000          4/72
   7:     0.25000000    0.08333333   -0.25000000          4/72
   8:     0.25000000    0.08333333    0.25000000          4/72
   9:     0.25000000    0.25000000    0.25000000          4/72
          ...
  20:     0.41666667    0.41666667    0.25000000          4/72

Wave functions: Plane wave expansion
  Cutoff energy: 480.000 eV
  Number of coefficients (min, max): 3629, 3670
  Pulay-stress correction: 0.000000 eV/Ang^3 (de/decut=0.000000)
  Using Numpy's FFT
  ScaLapack parameters: grid=1x1, blocksize=None
  Wavefunction extrapolation:
    Improved wavefunction reuse through dual PAW basis 

Occupation numbers: Fermi-Dirac:
  width: 0.1000  # eV
 

Eigensolver
   Davidson(niter=2) 

Densities:
  Coarse grid: 18*18*72 grid
  Fine grid: 36*36*144 grid
  Total Charge: 0.000000 

Density mixing:
  Method: separate
  Backend: pulay
  Linear mixing parameter: 0.05
  old densities: 5
  Damping of long wavelength oscillations: 50 

Hamiltonian:
  XC and Coulomb potentials evaluated on a 36*36*144 grid
  Using the PBE Exchange-Correlation functional
  External potential:
    NoExternalPotential
 

XC parameters: PBE with 2 nearest neighbor stencil

Memory estimate:
  Process memory now: 327.92 MiB
  Calculator: 74.01 MiB
    Density: 11.24 MiB
      Arrays: 4.63 MiB
      Localized functions: 4.83 MiB
      Mixer: 1.78 MiB
    Hamiltonian: 3.14 MiB
      Arrays: 3.03 MiB
      XC: 0.00 MiB
      Poisson: 0.00 MiB
      vbar: 0.12 MiB
    Wavefunctions: 59.62 MiB
      Arrays psit_nG: 42.34 MiB
      Eigensolver: 2.49 MiB
      Projections: 1.02 MiB
      Projectors: 11.71 MiB
      PW-descriptor: 2.07 MiB

Total number of cores used: 1

Number of atoms: 6
Number of atomic orbitals: 42
Number of bands in calculation: 36
Number of valence electrons: 52
Bands to converge: occupied

... initialized

Initializing position-dependent things.

Density initialized from atomic densities
Creating initial wave functions:
  36 bands from LCAO basis set

                  
                  
                  
                  
                  
       Te         
                  
                  
                  
                  
                  
                  
         Te       
                  
                  
                  
       W          
                  
                  
                  
                  
                  
                  
         W        
                  
         Te       
                  
                  
                  
                  
                  
                  
                  
                  
                  
       Te         
                  
                  
                  
                  

Positions:
   0 W      1.773000    1.023642    3.511250    ( 0.0000,  0.0000,  0.0000)
   1 W      1.773000   -1.023642   10.533750    ( 0.0000,  0.0000,  0.0000)
   2 Te     1.773000    1.023642   12.219150    ( 0.0000,  0.0000,  0.0000)
   3 Te     1.773000   -1.023642   -5.196650    ( 0.0000,  0.0000,  0.0000)
   4 Te     1.773000    1.023642    1.825850    ( 0.0000,  0.0000,  0.0000)
   5 Te     1.773000   -1.023642   19.241650    ( 0.0000,  0.0000,  0.0000)

Unit cell:
           periodic     x           y           z      points  spacing
  1. axis:    yes    1.773000   -3.070926    0.000000    18     0.1706
  2. axis:    yes    1.773000    3.070926    0.000000    18     0.1706
  3. axis:    yes    0.000000    0.000000   14.045000    72     0.1951

  Lengths:   3.546000   3.546000  14.045000
  Angles:   90.000000  90.000000 120.000000

Effective grid spacing dv^(1/3) = 0.1872

     iter     time        total  log10-change:
                         energy   eigst   dens
iter:   1 22:29:29     2.915491
iter:   2 22:29:33     4.981910   -0.70  -0.95
iter:   3 22:29:37     6.257259   -1.25  -1.11
iter:   4 22:29:41     6.875201   -1.46  -1.23
iter:   5 22:29:44     7.177956   -1.62  -1.40
iter:   6 22:29:48     7.181453   -2.42  -1.84
iter:   7 22:29:52     7.189418c  -3.45  -1.89
iter:   8 22:29:56     7.179213c  -2.81  -1.97
iter:   9 22:30:00     7.183810c  -3.19  -2.23
iter:  10 22:30:04     7.182537c  -3.87  -2.59
iter:  11 22:30:09     7.183614c  -4.36  -2.63
iter:  12 22:30:13     7.183943c  -4.39  -2.87
iter:  13 22:30:19     7.184084c  -4.65  -3.03
iter:  14 22:30:23     7.184109c  -5.66  -3.23
iter:  15 22:30:28     7.184058c  -5.49  -3.27
iter:  16 22:30:33     7.184044c  -5.48  -3.58
iter:  17 22:30:37     7.184117c  -5.87  -3.64
iter:  18 22:30:41     7.184125c  -7.04  -4.07c
iter:  19 22:30:45     7.184130c  -7.53c -4.10c

Converged after 19 iterations.

Dipole moment: (-0.000000, 0.000000, -0.193483) |e|*Ang

Energy contributions relative to reference atoms: (reference = -1616706.077045)

Kinetic:       +534.342837
Potential:     -450.460901
External:        +0.000000
XC:             -75.114053
Entropy (-ST):   -0.074049
Local:           -1.546729
SIC:             +0.000000
--------------------------
Free energy:     +7.147106
Extrapolated:    +7.184130

Showing only first 2 kpts
 Kpt  Band  Eigenvalues  Occupancy
  0    24      7.54189    1.99999
  0    25      8.69306    1.34135
  0    26      9.96620    0.00001
  0    27     10.09605    0.00000

  1    24      7.54189    1.99999
  1    25      8.69306    1.34135
  1    26      9.96620    0.00001
  1    27     10.09605    0.00000


Fermi level: 8.76419

No gap
No difference between direct/indirect transitions
Timing:                              incl.     excl.
-----------------------------------------------------------
Hamiltonian:                         0.188     0.001   0.0% |
 Atomic:                             0.117     0.001   0.0% |
  XC Correction:                     0.117     0.117   0.1% |
 Calculate atomic Hamiltonians:      0.007     0.007   0.0% |
 Communicate:                        0.000     0.000   0.0% |
 Initialize Hamiltonian:             0.000     0.000   0.0% |
 Poisson:                            0.000     0.000   0.0% |
 XC 3D grid:                         0.062     0.062   0.1% |
LCAO initialization:                 3.415     0.049   0.1% |
 LCAO eigensolver:                   1.508     0.001   0.0% |
  Calculate projections:             0.002     0.002   0.0% |
  DenseAtomicCorrection:             0.005     0.005   0.0% |
  Distribute overlap matrix:         0.001     0.001   0.0% |
  Orbital Layouts:                   0.768     0.768   0.9% |
  Potential matrix:                  0.152     0.152   0.2% |
  Sum over cells:                    0.579     0.579   0.7% |
 LCAO to grid:                       1.705     1.705   2.0% ||
 Set positions (LCAO WFS):           0.153     0.025   0.0% |
  Basic WFS set positions:           0.000     0.000   0.0% |
  Basis functions set positions:     0.000     0.000   0.0% |
  P tci:                             0.073     0.073   0.1% |
  ST tci:                            0.051     0.051   0.1% |
  mktci:                             0.004     0.004   0.0% |
PWDescriptor:                        0.011     0.011   0.0% |
SCF-cycle:                          79.655     0.230   0.3% |
 Davidson:                          70.183     7.029   8.4% |--|
  Apply H:                          12.427    12.255  14.7% |-----|
   HMM T:                            0.171     0.171   0.2% |
  Subspace diag:                    13.895     0.028   0.0% |
   calc_h_matrix:                   12.932     0.540   0.6% |
    Apply H:                        12.392    12.217  14.6% |-----|
     HMM T:                          0.175     0.175   0.2% |
   diagonalize:                      0.147     0.147   0.2% |
   rotate_psi:                       0.788     0.788   0.9% |
  calc. matrices:                   27.844     3.271   3.9% |-|
   Apply H:                         24.573    24.223  29.0% |-----------|
    HMM T:                           0.351     0.351   0.4% |
  diagonalize:                       7.415     7.415   8.9% |---|
  rotate_psi:                        1.573     1.573   1.9% ||
 Density:                            6.038     0.000   0.0% |
  Atomic density matrices:           0.033     0.033   0.0% |
  Mix:                               1.554     1.554   1.9% ||
  Multipole moments:                 0.002     0.002   0.0% |
  Pseudo density:                    4.449     4.424   5.3% |-|
   Symmetrize density:               0.025     0.025   0.0% |
 Hamiltonian:                        3.088     0.013   0.0% |
  Atomic:                            2.116     0.010   0.0% |
   XC Correction:                    2.107     2.107   2.5% ||
  Calculate atomic Hamiltonians:     0.181     0.181   0.2% |
  Communicate:                       0.000     0.000   0.0% |
  Poisson:                           0.009     0.009   0.0% |
  XC 3D grid:                        0.768     0.768   0.9% |
 Orthonormalize:                     0.117     0.001   0.0% |
  calc_s_matrix:                     0.016     0.016   0.0% |
  inverse-cholesky:                  0.003     0.003   0.0% |
  projections:                       0.074     0.074   0.1% |
  rotate_psi_s:                      0.023     0.023   0.0% |
Set symmetry:                        0.002     0.002   0.0% |
Other:                               0.217     0.217   0.3% |
-----------------------------------------------------------
Total:                                        83.489 100.0%

Memory usage: 327.92 MiB
Date: Sun Apr  6 22:30:45 2025
