
  ___ ___ ___ _ _ _  
 |   |   |_  | | | | 
 | | | | | . | | | | 
 |__ |  _|___|_____|  25.1.0
 |___|_|             

User:   georgios-vourvachakis@georgios-vourvachakis-82K2
Date:   Sun Apr  6 22:10:05 2025
Arch:   x86_64
Pid:    589600
CWD:    /home/georgios-vourvachakis/Desktop/DFT_codes
Python: 3.12.3
gpaw:   /home/georgios-vourvachakis/Desktop/DFT_codes/.venv/lib/python3.12/site-packages/gpaw
_gpaw:  /home/georgios-vourvachakis/Desktop/DFT_codes/.venv/lib/python3.12/site-packages/
        _gpaw.cpython-312-x86_64-linux-gnu.so
ase:    /home/georgios-vourvachakis/Desktop/DFT_codes/.venv/lib/python3.12/site-packages/ase (version 3.24.0)
numpy:  /home/georgios-vourvachakis/Desktop/DFT_codes/.venv/lib/python3.12/site-packages/numpy (version 2.2.3)
scipy:  /home/georgios-vourvachakis/Desktop/DFT_codes/.venv/lib/python3.12/site-packages/scipy (version 1.15.1)
libxc:  5.2.3
units:  Angstrom and eV
cores: 1
OpenMP: False
OMP_NUM_THREADS: 1

Input parameters:
  kpts: [6 6 2]
  mode: {ecut: 480.0,
         name: pw}
  xc: PBE

System changes: positions, numbers, cell, pbc, initial_charges, initial_magmoms 

Initialize ...

species:
  W:
    name: Tungsten
    id: 3ed563b7d19992259c4d7db283f2ff78
    Z: 74.0
    valence: 14
    core: 60
    charge: 0.0
    file: /home/georgios-vourvachakis/Desktop/DFT_codes/gpaw_datasets/gpaw-setups-0.9.20000/W.PBE.gz
    compensation charges: {type: gauss,
                           rc: 0.40,
                           lmax: 2}
    cutoffs: {filter: 2.36,
              core: 3.02}
    projectors:
      #              energy  rcut
      - 5s(2.00)   -78.830   1.344
      - 6s(2.00)    -5.697   1.344
      - 5p(6.00)   -43.233   1.355
      - 6p(0.00)    -1.367   1.355
      - 5d(4.00)    -4.494   1.228
      -  d          22.717   1.228
  
    # Using partial waves for W as LCAO basis

  Te:
    name: Tellurium
    id: e44b9ef4772d7e5a1c6a47e6d6496588
    Z: 52.0
    valence: 6
    core: 46
    charge: 0.0
    file: /home/georgios-vourvachakis/Desktop/DFT_codes/gpaw_datasets/gpaw-setups-0.9.20000/Te.PBE.gz
    compensation charges: {type: gauss,
                           rc: 0.36,
                           lmax: 2}
    cutoffs: {filter: 2.09,
              core: 3.17}
    projectors:
      #              energy  rcut
      - 5s(2.00)   -15.089   1.180
      - 5p(4.00)    -5.955   1.196
      -  s          12.123   1.180
      -  p          21.256   1.196
      -  d           0.000   1.238
  
    # Using partial waves for Te as LCAO basis

Reference energy: -1616706.077045  # eV

Spin-paired calculation

Convergence criteria:
 Maximum [total energy] change in last 3 cyles: 0.0005 eV / valence electron
 Maximum integral of absolute [dens]ity change: 0.0001 electrons / valence electron
 Maximum integral of absolute [eigenst]ate change: 4e-08 eV^2 / valence electron
 Maximum number of scf [iter]ations: 333
 (Square brackets indicate name in SCF output, whereas a 'c' in
 the SCF output indicates the quantity has converged.)

Symmetries present (total): 6

  ( 1  1  0)  ( 1  0  0)  ( 0  1  0)  ( 0 -1  0)  (-1  0  0)  (-1 -1  0)
  ( 0 -1  0)  ( 0  1  0)  (-1 -1  0)  (-1  0  0)  ( 1  1  0)  ( 1  0  0)
  ( 0  0  1)  ( 0  0  1)  ( 0  0  1)  ( 0  0  1)  ( 0  0  1)  ( 0  0  1)
Note: your k-points are not as symmetric as your crystal!

72 k-points: 6 x 6 x 2 Monkhorst-Pack grid
21 k-points in the irreducible part of the Brillouin zone
       k-points in crystal coordinates                weights
   0:     0.08333333   -0.08333333   -0.25000000          2/72
   1:     0.08333333   -0.08333333    0.25000000          2/72
   2:     0.08333333    0.08333333    0.25000000          4/72
   3:     0.25000000   -0.25000000   -0.25000000          2/72
   4:     0.25000000   -0.25000000    0.25000000          2/72
   5:     0.25000000   -0.08333333   -0.25000000          4/72
   6:     0.25000000   -0.08333333    0.25000000          4/72
   7:     0.25000000    0.08333333   -0.25000000          4/72
   8:     0.25000000    0.08333333    0.25000000          4/72
   9:     0.25000000    0.25000000    0.25000000          4/72
          ...
  20:     0.41666667    0.41666667    0.25000000          4/72

Wave functions: Plane wave expansion
  Cutoff energy: 480.000 eV
  Number of coefficients (min, max): 3496, 3526
  Pulay-stress correction: 0.000000 eV/Ang^3 (de/decut=0.000000)
  Using Numpy's FFT
  ScaLapack parameters: grid=1x1, blocksize=None
  Wavefunction extrapolation:
    Improved wavefunction reuse through dual PAW basis 

Occupation numbers: Fermi-Dirac:
  width: 0.1000  # eV
 

Eigensolver
   Davidson(niter=2) 

Densities:
  Coarse grid: 18*18*72 grid
  Fine grid: 36*36*144 grid
  Total Charge: 0.000000 

Density mixing:
  Method: separate
  Backend: pulay
  Linear mixing parameter: 0.05
  old densities: 5
  Damping of long wavelength oscillations: 50 

Hamiltonian:
  XC and Coulomb potentials evaluated on a 36*36*144 grid
  Using the PBE Exchange-Correlation functional
  External potential:
    NoExternalPotential
 

XC parameters: PBE with 2 nearest neighbor stencil

Memory estimate:
  Process memory now: 314.50 MiB
  Calculator: 71.58 MiB
    Density: 11.08 MiB
      Arrays: 4.63 MiB
      Localized functions: 4.67 MiB
      Mixer: 1.78 MiB
    Hamiltonian: 3.14 MiB
      Arrays: 3.03 MiB
      XC: 0.00 MiB
      Poisson: 0.00 MiB
      vbar: 0.11 MiB
    Wavefunctions: 57.37 MiB
      Arrays psit_nG: 40.67 MiB
      Eigensolver: 2.40 MiB
      Projections: 1.02 MiB
      Projectors: 11.25 MiB
      PW-descriptor: 2.02 MiB

Total number of cores used: 1

Number of atoms: 6
Number of atomic orbitals: 42
Number of bands in calculation: 36
Number of valence electrons: 52
Bands to converge: occupied

... initialized

Initializing position-dependent things.

Density initialized from atomic densities
Creating initial wave functions:
  36 bands from LCAO basis set

                  
                  
                  
                  
                  
       Te         
                  
                  
                  
                  
                  
                  
         Te       
                  
                  
                  
       W          
                  
                  
                  
                  
                  
                  
         W        
                  
         Te       
                  
                  
                  
                  
                  
                  
                  
                  
                  
       Te         
                  
                  
                  
                  

Positions:
   0 W      1.735500    1.001991    3.523750    ( 0.0000,  0.0000,  0.0000)
   1 W      1.735500   -1.001991   10.571250    ( 0.0000,  0.0000,  0.0000)
   2 Te     1.735500    1.001991   12.262650    ( 0.0000,  0.0000,  0.0000)
   3 Te     1.735500   -1.001991   -5.215150    ( 0.0000,  0.0000,  0.0000)
   4 Te     1.735500    1.001991    1.832350    ( 0.0000,  0.0000,  0.0000)
   5 Te     1.735500   -1.001991   19.310150    ( 0.0000,  0.0000,  0.0000)

Unit cell:
           periodic     x           y           z      points  spacing
  1. axis:    yes    1.735500   -3.005974    0.000000    18     0.1670
  2. axis:    yes    1.735500    3.005974    0.000000    18     0.1670
  3. axis:    yes    0.000000    0.000000   14.095000    72     0.1958

  Lengths:   3.471000   3.471000  14.095000
  Angles:   90.000000  90.000000 120.000000

Effective grid spacing dv^(1/3) = 0.1847

     iter     time        total  log10-change:
                         energy   eigst   dens
iter:   1 22:10:12     2.282144
iter:   2 22:10:16     4.268286   -0.72  -0.96
iter:   3 22:10:20     5.563631   -1.25  -1.11
iter:   4 22:10:24     6.134979   -1.44  -1.23
iter:   5 22:10:28     6.452022   -1.66  -1.41
iter:   6 22:10:31     6.455503   -2.53  -1.86
iter:   7 22:10:35     6.454796c  -3.52  -1.90
iter:   8 22:10:39     6.450036c  -2.79  -1.90
iter:   9 22:10:43     6.445297c  -3.67  -2.16
iter:  10 22:10:48     6.446778c  -4.17  -2.14
iter:  11 22:10:52     6.450339c  -3.41  -2.15
iter:  12 22:10:57     6.452033c  -3.36  -2.26
iter:  13 22:11:00     6.454040c  -4.36  -2.19
iter:  14 22:11:04     6.456186c  -3.32  -2.22
iter:  15 22:11:08     6.455179c  -4.33  -2.43
iter:  16 22:11:12     6.454349c  -3.65  -2.48
iter:  17 22:11:16     6.454400c  -5.10  -3.13
iter:  18 22:11:20     6.454395c  -5.57  -3.24
iter:  19 22:11:24     6.454347c  -4.73  -3.31
iter:  20 22:11:28     6.454445c  -5.59  -3.27
iter:  21 22:11:31     6.454497c  -6.09  -3.61
iter:  22 22:11:35     6.454524c  -6.97  -3.65
iter:  23 22:11:39     6.454507c  -6.34  -3.72
iter:  24 22:11:43     6.454507c  -7.40c -3.99
iter:  25 22:11:47     6.454509c  -7.50c -4.06c

Converged after 25 iterations.

Dipole moment: (0.000000, -0.000000, -0.158919) |e|*Ang

Energy contributions relative to reference atoms: (reference = -1616706.077045)

Kinetic:       +538.237042
Potential:     -453.388332
External:        +0.000000
XC:             -76.812811
Entropy (-ST):   -0.064222
Local:           -1.549280
SIC:             +0.000000
--------------------------
Free energy:     +6.422398
Extrapolated:    +6.454509

Showing only first 2 kpts
 Kpt  Band  Eigenvalues  Occupancy
  0    24      7.86644    2.00000
  0    25      8.99451    1.79007
  0    26     10.67033    0.00000
  0    27     10.79564    0.00000

  1    24      7.86644    2.00000
  1    25      8.99451    1.79007
  1    26     10.67033    0.00000
  1    27     10.79564    0.00000


Fermi level: 9.20883

No gap
No difference between direct/indirect transitions
Timing:                              incl.     excl.
-----------------------------------------------------------
Hamiltonian:                         0.189     0.001   0.0% |
 Atomic:                             0.118     0.001   0.0% |
  XC Correction:                     0.118     0.118   0.1% |
 Calculate atomic Hamiltonians:      0.009     0.009   0.0% |
 Communicate:                        0.000     0.000   0.0% |
 Initialize Hamiltonian:             0.000     0.000   0.0% |
 Poisson:                            0.000     0.000   0.0% |
 XC 3D grid:                         0.060     0.060   0.1% |
LCAO initialization:                 3.138     0.053   0.1% |
 LCAO eigensolver:                   1.336     0.001   0.0% |
  Calculate projections:             0.002     0.002   0.0% |
  DenseAtomicCorrection:             0.009     0.009   0.0% |
  Distribute overlap matrix:         0.001     0.001   0.0% |
  Orbital Layouts:                   0.674     0.674   0.7% |
  Potential matrix:                  0.171     0.171   0.2% |
  Sum over cells:                    0.480     0.480   0.5% |
 LCAO to grid:                       1.582     1.582   1.6% ||
 Set positions (LCAO WFS):           0.166     0.030   0.0% |
  Basic WFS set positions:           0.000     0.000   0.0% |
  Basis functions set positions:     0.000     0.000   0.0% |
  P tci:                             0.078     0.078   0.1% |
  ST tci:                            0.054     0.054   0.1% |
  mktci:                             0.004     0.004   0.0% |
PWDescriptor:                        0.012     0.012   0.0% |
SCF-cycle:                          98.177     0.269   0.3% |
 Davidson:                          85.759     8.930   8.8% |---|
  Apply H:                          16.150    15.938  15.7% |-----|
   HMM T:                            0.211     0.211   0.2% |
  Subspace diag:                    17.841     0.033   0.0% |
   calc_h_matrix:                   16.613     0.726   0.7% |
    Apply H:                        15.887    15.665  15.4% |-----|
     HMM T:                          0.222     0.222   0.2% |
   diagonalize:                      0.191     0.191   0.2% |
   rotate_psi:                       1.005     1.005   1.0% |
  calc. matrices:                   36.149     4.102   4.0% |-|
   Apply H:                         32.046    31.624  31.1% |-----------|
    HMM T:                           0.422     0.422   0.4% |
  diagonalize:                       4.724     4.724   4.6% |-|
  rotate_psi:                        1.965     1.965   1.9% ||
 Density:                            8.128     0.000   0.0% |
  Atomic density matrices:           0.046     0.046   0.0% |
  Mix:                               2.210     2.210   2.2% ||
  Multipole moments:                 0.002     0.002   0.0% |
  Pseudo density:                    5.870     5.836   5.7% |-|
   Symmetrize density:               0.034     0.034   0.0% |
 Hamiltonian:                        3.912     0.017   0.0% |
  Atomic:                            2.809     0.013   0.0% |
   XC Correction:                    2.797     2.797   2.7% ||
  Calculate atomic Hamiltonians:     0.195     0.195   0.2% |
  Communicate:                       0.000     0.000   0.0% |
  Poisson:                           0.011     0.011   0.0% |
  XC 3D grid:                        0.879     0.879   0.9% |
 Orthonormalize:                     0.110     0.001   0.0% |
  calc_s_matrix:                     0.015     0.015   0.0% |
  inverse-cholesky:                  0.003     0.003   0.0% |
  projections:                       0.070     0.070   0.1% |
  rotate_psi_s:                      0.021     0.021   0.0% |
Set symmetry:                        0.003     0.003   0.0% |
Other:                               0.216     0.216   0.2% |
-----------------------------------------------------------
Total:                                       101.736 100.0%

Memory usage: 320.81 MiB
Date: Sun Apr  6 22:11:47 2025
