
  ___ ___ ___ _ _ _  
 |   |   |_  | | | | 
 | | | | | . | | | | 
 |__ |  _|___|_____|  25.1.0
 |___|_|             

User:   georgios-vourvachakis@georgios-vourvachakis-82K2
Date:   Sun Apr  6 22:04:58 2025
Arch:   x86_64
Pid:    589600
CWD:    /home/georgios-vourvachakis/Desktop/DFT_codes
Python: 3.12.3
gpaw:   /home/georgios-vourvachakis/Desktop/DFT_codes/.venv/lib/python3.12/site-packages/gpaw
_gpaw:  /home/georgios-vourvachakis/Desktop/DFT_codes/.venv/lib/python3.12/site-packages/
        _gpaw.cpython-312-x86_64-linux-gnu.so
ase:    /home/georgios-vourvachakis/Desktop/DFT_codes/.venv/lib/python3.12/site-packages/ase (version 3.24.0)
numpy:  /home/georgios-vourvachakis/Desktop/DFT_codes/.venv/lib/python3.12/site-packages/numpy (version 2.2.3)
scipy:  /home/georgios-vourvachakis/Desktop/DFT_codes/.venv/lib/python3.12/site-packages/scipy (version 1.15.1)
libxc:  5.2.3
units:  Angstrom and eV
cores: 1
OpenMP: False
OMP_NUM_THREADS: 1

Input parameters:
  kpts: [6 6 2]
  mode: {ecut: 480.0,
         name: pw}
  xc: PBE

System changes: positions, numbers, cell, pbc, initial_charges, initial_magmoms 

Initialize ...

species:
  W:
    name: Tungsten
    id: 3ed563b7d19992259c4d7db283f2ff78
    Z: 74.0
    valence: 14
    core: 60
    charge: 0.0
    file: /home/georgios-vourvachakis/Desktop/DFT_codes/gpaw_datasets/gpaw-setups-0.9.20000/W.PBE.gz
    compensation charges: {type: gauss,
                           rc: 0.40,
                           lmax: 2}
    cutoffs: {filter: 2.36,
              core: 3.02}
    projectors:
      #              energy  rcut
      - 5s(2.00)   -78.830   1.344
      - 6s(2.00)    -5.697   1.344
      - 5p(6.00)   -43.233   1.355
      - 6p(0.00)    -1.367   1.355
      - 5d(4.00)    -4.494   1.228
      -  d          22.717   1.228
  
    # Using partial waves for W as LCAO basis

  Te:
    name: Tellurium
    id: e44b9ef4772d7e5a1c6a47e6d6496588
    Z: 52.0
    valence: 6
    core: 46
    charge: 0.0
    file: /home/georgios-vourvachakis/Desktop/DFT_codes/gpaw_datasets/gpaw-setups-0.9.20000/Te.PBE.gz
    compensation charges: {type: gauss,
                           rc: 0.36,
                           lmax: 2}
    cutoffs: {filter: 2.09,
              core: 3.17}
    projectors:
      #              energy  rcut
      - 5s(2.00)   -15.089   1.180
      - 5p(4.00)    -5.955   1.196
      -  s          12.123   1.180
      -  p          21.256   1.196
      -  d           0.000   1.238
  
    # Using partial waves for Te as LCAO basis

Reference energy: -1616706.077045  # eV

Spin-paired calculation

Convergence criteria:
 Maximum [total energy] change in last 3 cyles: 0.0005 eV / valence electron
 Maximum integral of absolute [dens]ity change: 0.0001 electrons / valence electron
 Maximum integral of absolute [eigenst]ate change: 4e-08 eV^2 / valence electron
 Maximum number of scf [iter]ations: 333
 (Square brackets indicate name in SCF output, whereas a 'c' in
 the SCF output indicates the quantity has converged.)

Symmetries present (total): 6

  ( 1  1  0)  ( 1  0  0)  ( 0  1  0)  ( 0 -1  0)  (-1  0  0)  (-1 -1  0)
  ( 0 -1  0)  ( 0  1  0)  (-1 -1  0)  (-1  0  0)  ( 1  1  0)  ( 1  0  0)
  ( 0  0  1)  ( 0  0  1)  ( 0  0  1)  ( 0  0  1)  ( 0  0  1)  ( 0  0  1)
Note: your k-points are not as symmetric as your crystal!

72 k-points: 6 x 6 x 2 Monkhorst-Pack grid
21 k-points in the irreducible part of the Brillouin zone
       k-points in crystal coordinates                weights
   0:     0.08333333   -0.08333333   -0.25000000          2/72
   1:     0.08333333   -0.08333333    0.25000000          2/72
   2:     0.08333333    0.08333333    0.25000000          4/72
   3:     0.25000000   -0.25000000   -0.25000000          2/72
   4:     0.25000000   -0.25000000    0.25000000          2/72
   5:     0.25000000   -0.08333333   -0.25000000          4/72
   6:     0.25000000   -0.08333333    0.25000000          4/72
   7:     0.25000000    0.08333333   -0.25000000          4/72
   8:     0.25000000    0.08333333    0.25000000          4/72
   9:     0.25000000    0.25000000    0.25000000          4/72
          ...
  20:     0.41666667    0.41666667    0.25000000          4/72

Wave functions: Plane wave expansion
  Cutoff energy: 480.000 eV
  Number of coefficients (min, max): 3479, 3504
  Pulay-stress correction: 0.000000 eV/Ang^3 (de/decut=0.000000)
  Using Numpy's FFT
  ScaLapack parameters: grid=1x1, blocksize=None
  Wavefunction extrapolation:
    Improved wavefunction reuse through dual PAW basis 

Occupation numbers: Fermi-Dirac:
  width: 0.1000  # eV
 

Eigensolver
   Davidson(niter=2) 

Densities:
  Coarse grid: 18*18*72 grid
  Fine grid: 36*36*144 grid
  Total Charge: 0.000000 

Density mixing:
  Method: separate
  Backend: pulay
  Linear mixing parameter: 0.05
  old densities: 5
  Damping of long wavelength oscillations: 50 

Hamiltonian:
  XC and Coulomb potentials evaluated on a 36*36*144 grid
  Using the PBE Exchange-Correlation functional
  External potential:
    NoExternalPotential
 

XC parameters: PBE with 2 nearest neighbor stencil

Memory estimate:
  Process memory now: 298.79 MiB
  Calculator: 71.23 MiB
    Density: 11.05 MiB
      Arrays: 4.63 MiB
      Localized functions: 4.65 MiB
      Mixer: 1.78 MiB
    Hamiltonian: 3.14 MiB
      Arrays: 3.03 MiB
      XC: 0.00 MiB
      Poisson: 0.00 MiB
      vbar: 0.11 MiB
    Wavefunctions: 57.03 MiB
      Arrays psit_nG: 40.42 MiB
      Eigensolver: 2.39 MiB
      Projections: 1.02 MiB
      Projectors: 11.20 MiB
      PW-descriptor: 2.01 MiB

Total number of cores used: 1

Number of atoms: 6
Number of atomic orbitals: 42
Number of bands in calculation: 36
Number of valence electrons: 52
Bands to converge: occupied

... initialized

Initializing position-dependent things.

Density initialized from atomic densities
Creating initial wave functions:
  36 bands from LCAO basis set

                  
                  
                  
                  
                  
       Te         
                  
                  
                  
                  
                  
                  
         Te       
                  
                  
                  
       W          
                  
                  
                  
                  
                  
                  
         W        
                  
         Te       
                  
                  
                  
                  
                  
                  
                  
                  
                  
       Te         
                  
                  
                  
                  

Positions:
   0 W      1.735500    1.001991    3.505000    ( 0.0000,  0.0000,  0.0000)
   1 W      1.735500   -1.001991   10.515000    ( 0.0000,  0.0000,  0.0000)
   2 Te     1.735500    1.001991   12.197400    ( 0.0000,  0.0000,  0.0000)
   3 Te     1.735500   -1.001991   -5.187400    ( 0.0000,  0.0000,  0.0000)
   4 Te     1.735500    1.001991    1.822600    ( 0.0000,  0.0000,  0.0000)
   5 Te     1.735500   -1.001991   19.207400    ( 0.0000,  0.0000,  0.0000)

Unit cell:
           periodic     x           y           z      points  spacing
  1. axis:    yes    1.735500   -3.005974    0.000000    18     0.1670
  2. axis:    yes    1.735500    3.005974    0.000000    18     0.1670
  3. axis:    yes    0.000000    0.000000   14.020000    72     0.1947

  Lengths:   3.471000   3.471000  14.020000
  Angles:   90.000000  90.000000 120.000000

Effective grid spacing dv^(1/3) = 0.1844

     iter     time        total  log10-change:
                         energy   eigst   dens
iter:   1 22:05:05     3.618438
iter:   2 22:05:09     5.710714   -0.71  -0.95
iter:   3 22:05:13     7.053262   -1.24  -1.11
iter:   4 22:05:17     7.630502   -1.43  -1.24
iter:   5 22:05:20     7.949765   -1.65  -1.41
iter:   6 22:05:24     7.954339   -2.51  -1.85
iter:   7 22:05:29     7.954511c  -3.53  -1.90
iter:   8 22:05:32     7.950741c  -2.86  -1.90
iter:   9 22:05:36     7.936679c  -3.33  -2.08
iter:  10 22:05:40     7.936170c  -4.28  -2.00
iter:  11 22:05:44     7.949314c  -2.93  -1.97
iter:  12 22:05:48     7.944558c  -2.67  -2.34
iter:  13 22:05:52     7.951908c  -3.80  -2.29
iter:  14 22:05:56     7.952853c  -3.58  -2.56
iter:  15 22:06:00     7.953100c  -4.37  -2.80
iter:  16 22:06:03     7.953136c  -5.16  -2.96
iter:  17 22:06:07     7.953122c  -5.51  -3.03
iter:  18 22:06:11     7.953188c  -5.05  -3.06
iter:  19 22:06:15     7.953165c  -5.91  -3.44
iter:  20 22:06:19     7.953158c  -5.99  -3.51
iter:  21 22:06:23     7.953161c  -6.24  -3.73
iter:  22 22:06:27     7.953158c  -7.37  -4.07c
iter:  23 22:06:31     7.953155c  -7.68c -4.19c

Converged after 23 iterations.

Dipole moment: (-0.000000, -0.000000, -0.167925) |e|*Ang

Energy contributions relative to reference atoms: (reference = -1616706.077045)

Kinetic:       +551.506128
Potential:     -464.007641
External:        +0.000000
XC:             -77.910004
Entropy (-ST):   -0.068970
Local:           -1.600843
SIC:             +0.000000
--------------------------
Free energy:     +7.918670
Extrapolated:    +7.953155

Showing only first 2 kpts
 Kpt  Band  Eigenvalues  Occupancy
  0    24      7.97613    2.00000
  0    25      9.12336    1.70989
  0    26     10.73776    0.00000
  0    27     10.86904    0.00000

  1    24      7.97613    2.00000
  1    25      9.12336    1.70989
  1    26     10.73776    0.00000
  1    27     10.86904    0.00000


Fermi level: 9.30075

No gap
No difference between direct/indirect transitions
Timing:                              incl.     excl.
-----------------------------------------------------------
Hamiltonian:                         0.180     0.001   0.0% |
 Atomic:                             0.118     0.001   0.0% |
  XC Correction:                     0.118     0.118   0.1% |
 Calculate atomic Hamiltonians:      0.007     0.007   0.0% |
 Communicate:                        0.000     0.000   0.0% |
 Initialize Hamiltonian:             0.000     0.000   0.0% |
 Poisson:                            0.000     0.000   0.0% |
 XC 3D grid:                         0.053     0.053   0.1% |
LCAO initialization:                 3.114     0.050   0.1% |
 LCAO eigensolver:                   1.238     0.001   0.0% |
  Calculate projections:             0.002     0.002   0.0% |
  DenseAtomicCorrection:             0.005     0.005   0.0% |
  Distribute overlap matrix:         0.001     0.001   0.0% |
  Orbital Layouts:                   0.648     0.648   0.7% |
  Potential matrix:                  0.162     0.162   0.2% |
  Sum over cells:                    0.419     0.419   0.5% |
 LCAO to grid:                       1.667     1.667   1.8% ||
 Set positions (LCAO WFS):           0.159     0.028   0.0% |
  Basic WFS set positions:           0.000     0.000   0.0% |
  Basis functions set positions:     0.000     0.000   0.0% |
  P tci:                             0.076     0.076   0.1% |
  ST tci:                            0.051     0.051   0.1% |
  mktci:                             0.004     0.004   0.0% |
PWDescriptor:                        0.011     0.011   0.0% |
SCF-cycle:                          89.511     0.256   0.3% |
 Davidson:                          78.154     8.059   8.7% |--|
  Apply H:                          14.759    14.570  15.7% |-----|
   HMM T:                            0.190     0.190   0.2% |
  Subspace diag:                    16.624     0.030   0.0% |
   calc_h_matrix:                   15.486     0.659   0.7% |
    Apply H:                        14.827    14.607  15.7% |-----|
     HMM T:                          0.220     0.220   0.2% |
   diagonalize:                      0.188     0.188   0.2% |
   rotate_psi:                       0.920     0.920   1.0% |
  calc. matrices:                   33.197     3.737   4.0% |-|
   Apply H:                         29.460    29.059  31.2% |-----------|
    HMM T:                           0.401     0.401   0.4% |
  diagonalize:                       3.728     3.728   4.0% |-|
  rotate_psi:                        1.786     1.786   1.9% ||
 Density:                            7.408     0.000   0.0% |
  Atomic density matrices:           0.041     0.041   0.0% |
  Mix:                               2.021     2.021   2.2% ||
  Multipole moments:                 0.002     0.002   0.0% |
  Pseudo density:                    5.344     5.313   5.7% |-|
   Symmetrize density:               0.031     0.031   0.0% |
 Hamiltonian:                        3.582     0.016   0.0% |
  Atomic:                            2.631     0.012   0.0% |
   XC Correction:                    2.619     2.619   2.8% ||
  Calculate atomic Hamiltonians:     0.160     0.160   0.2% |
  Communicate:                       0.000     0.000   0.0% |
  Poisson:                           0.010     0.010   0.0% |
  XC 3D grid:                        0.765     0.765   0.8% |
 Orthonormalize:                     0.112     0.001   0.0% |
  calc_s_matrix:                     0.015     0.015   0.0% |
  inverse-cholesky:                  0.003     0.003   0.0% |
  projections:                       0.071     0.071   0.1% |
  rotate_psi_s:                      0.022     0.022   0.0% |
Set symmetry:                        0.002     0.002   0.0% |
Other:                               0.254     0.254   0.3% |
-----------------------------------------------------------
Total:                                        93.072 100.0%

Memory usage: 301.29 MiB
Date: Sun Apr  6 22:06:31 2025
