
  ___ ___ ___ _ _ _  
 |   |   |_  | | | | 
 | | | | | . | | | | 
 |__ |  _|___|_____|  25.1.0
 |___|_|             

User:   georgios-vourvachakis@georgios-vourvachakis-82K2
Date:   Sun Apr  6 22:00:14 2025
Arch:   x86_64
Pid:    589600
CWD:    /home/georgios-vourvachakis/Desktop/DFT_codes
Python: 3.12.3
gpaw:   /home/georgios-vourvachakis/Desktop/DFT_codes/.venv/lib/python3.12/site-packages/gpaw
_gpaw:  /home/georgios-vourvachakis/Desktop/DFT_codes/.venv/lib/python3.12/site-packages/
        _gpaw.cpython-312-x86_64-linux-gnu.so
ase:    /home/georgios-vourvachakis/Desktop/DFT_codes/.venv/lib/python3.12/site-packages/ase (version 3.24.0)
numpy:  /home/georgios-vourvachakis/Desktop/DFT_codes/.venv/lib/python3.12/site-packages/numpy (version 2.2.3)
scipy:  /home/georgios-vourvachakis/Desktop/DFT_codes/.venv/lib/python3.12/site-packages/scipy (version 1.15.1)
libxc:  5.2.3
units:  Angstrom and eV
cores: 1
OpenMP: False
OMP_NUM_THREADS: 1

Input parameters:
  kpts: [6 6 2]
  mode: {ecut: 480.0,
         name: pw}
  xc: PBE

System changes: positions, numbers, cell, pbc, initial_charges, initial_magmoms 

Initialize ...

species:
  W:
    name: Tungsten
    id: 3ed563b7d19992259c4d7db283f2ff78
    Z: 74.0
    valence: 14
    core: 60
    charge: 0.0
    file: /home/georgios-vourvachakis/Desktop/DFT_codes/gpaw_datasets/gpaw-setups-0.9.20000/W.PBE.gz
    compensation charges: {type: gauss,
                           rc: 0.40,
                           lmax: 2}
    cutoffs: {filter: 2.36,
              core: 3.02}
    projectors:
      #              energy  rcut
      - 5s(2.00)   -78.830   1.344
      - 6s(2.00)    -5.697   1.344
      - 5p(6.00)   -43.233   1.355
      - 6p(0.00)    -1.367   1.355
      - 5d(4.00)    -4.494   1.228
      -  d          22.717   1.228
  
    # Using partial waves for W as LCAO basis

  Te:
    name: Tellurium
    id: e44b9ef4772d7e5a1c6a47e6d6496588
    Z: 52.0
    valence: 6
    core: 46
    charge: 0.0
    file: /home/georgios-vourvachakis/Desktop/DFT_codes/gpaw_datasets/gpaw-setups-0.9.20000/Te.PBE.gz
    compensation charges: {type: gauss,
                           rc: 0.36,
                           lmax: 2}
    cutoffs: {filter: 2.09,
              core: 3.17}
    projectors:
      #              energy  rcut
      - 5s(2.00)   -15.089   1.180
      - 5p(4.00)    -5.955   1.196
      -  s          12.123   1.180
      -  p          21.256   1.196
      -  d           0.000   1.238
  
    # Using partial waves for Te as LCAO basis

Reference energy: -1616706.077045  # eV

Spin-paired calculation

Convergence criteria:
 Maximum [total energy] change in last 3 cyles: 0.0005 eV / valence electron
 Maximum integral of absolute [dens]ity change: 0.0001 electrons / valence electron
 Maximum integral of absolute [eigenst]ate change: 4e-08 eV^2 / valence electron
 Maximum number of scf [iter]ations: 333
 (Square brackets indicate name in SCF output, whereas a 'c' in
 the SCF output indicates the quantity has converged.)

Symmetries present (total): 6

  ( 1  1  0)  ( 1  0  0)  ( 0  1  0)  ( 0 -1  0)  (-1  0  0)  (-1 -1  0)
  ( 0 -1  0)  ( 0  1  0)  (-1 -1  0)  (-1  0  0)  ( 1  1  0)  ( 1  0  0)
  ( 0  0  1)  ( 0  0  1)  ( 0  0  1)  ( 0  0  1)  ( 0  0  1)  ( 0  0  1)
Note: your k-points are not as symmetric as your crystal!

72 k-points: 6 x 6 x 2 Monkhorst-Pack grid
21 k-points in the irreducible part of the Brillouin zone
       k-points in crystal coordinates                weights
   0:     0.08333333   -0.08333333   -0.25000000          2/72
   1:     0.08333333   -0.08333333    0.25000000          2/72
   2:     0.08333333    0.08333333    0.25000000          4/72
   3:     0.25000000   -0.25000000   -0.25000000          2/72
   4:     0.25000000   -0.25000000    0.25000000          2/72
   5:     0.25000000   -0.08333333   -0.25000000          4/72
   6:     0.25000000   -0.08333333    0.25000000          4/72
   7:     0.25000000    0.08333333   -0.25000000          4/72
   8:     0.25000000    0.08333333    0.25000000          4/72
   9:     0.25000000    0.25000000    0.25000000          4/72
          ...
  20:     0.41666667    0.41666667    0.25000000          4/72

Wave functions: Plane wave expansion
  Cutoff energy: 480.000 eV
  Number of coefficients (min, max): 3439, 3472
  Pulay-stress correction: 0.000000 eV/Ang^3 (de/decut=0.000000)
  Using Numpy's FFT
  ScaLapack parameters: grid=1x1, blocksize=None
  Wavefunction extrapolation:
    Improved wavefunction reuse through dual PAW basis 

Occupation numbers: Fermi-Dirac:
  width: 0.1000  # eV
 

Eigensolver
   Davidson(niter=2) 

Densities:
  Coarse grid: 18*18*72 grid
  Fine grid: 36*36*144 grid
  Total Charge: 0.000000 

Density mixing:
  Method: separate
  Backend: pulay
  Linear mixing parameter: 0.05
  old densities: 5
  Damping of long wavelength oscillations: 50 

Hamiltonian:
  XC and Coulomb potentials evaluated on a 36*36*144 grid
  Using the PBE Exchange-Correlation functional
  External potential:
    NoExternalPotential
 

XC parameters: PBE with 2 nearest neighbor stencil

Memory estimate:
  Process memory now: 289.54 MiB
  Calculator: 70.65 MiB
    Density: 11.00 MiB
      Arrays: 4.63 MiB
      Localized functions: 4.59 MiB
      Mixer: 1.78 MiB
    Hamiltonian: 3.14 MiB
      Arrays: 3.03 MiB
      XC: 0.00 MiB
      Poisson: 0.00 MiB
      vbar: 0.11 MiB
    Wavefunctions: 56.52 MiB
      Arrays psit_nG: 40.05 MiB
      Eigensolver: 2.37 MiB
      Projections: 1.02 MiB
      Projectors: 11.07 MiB
      PW-descriptor: 2.00 MiB

Total number of cores used: 1

Number of atoms: 6
Number of atomic orbitals: 42
Number of bands in calculation: 36
Number of valence electrons: 52
Bands to converge: occupied

... initialized

Initializing position-dependent things.

Density initialized from atomic densities
Creating initial wave functions:
  36 bands from LCAO basis set

                  
                  
                  
                  
                  
       Te         
                  
                  
                  
                  
                  
                  
         Te       
                  
                  
                  
       W          
                  
                  
                  
                  
                  
                  
         W        
                  
         Te       
                  
                  
                  
                  
                  
                  
                  
                  
                  
       Te         
                  
                  
                  
                  

Positions:
   0 W      1.723000    0.994775    3.517500    ( 0.0000,  0.0000,  0.0000)
   1 W      1.723000   -0.994775   10.552500    ( 0.0000,  0.0000,  0.0000)
   2 Te     1.723000    0.994775   12.240900    ( 0.0000,  0.0000,  0.0000)
   3 Te     1.723000   -0.994775   -5.205900    ( 0.0000,  0.0000,  0.0000)
   4 Te     1.723000    0.994775    1.829100    ( 0.0000,  0.0000,  0.0000)
   5 Te     1.723000   -0.994775   19.275900    ( 0.0000,  0.0000,  0.0000)

Unit cell:
           periodic     x           y           z      points  spacing
  1. axis:    yes    1.723000   -2.984324    0.000000    18     0.1658
  2. axis:    yes    1.723000    2.984324    0.000000    18     0.1658
  3. axis:    yes    0.000000    0.000000   14.070000    72     0.1954

  Lengths:   3.446000   3.446000  14.070000
  Angles:   90.000000  90.000000 120.000000

Effective grid spacing dv^(1/3) = 0.1837

     iter     time        total  log10-change:
                         energy   eigst   dens
iter:   1 22:00:21     2.829266
iter:   2 22:00:25     4.848456   -0.72  -0.96
iter:   3 22:00:29     6.185349   -1.24  -1.11
iter:   4 22:00:33     6.744172   -1.44  -1.24
iter:   5 22:00:37     7.064633   -1.66  -1.41
iter:   6 22:00:41     7.067747   -2.55  -1.87
iter:   7 22:00:45     7.065481c  -3.50  -1.91
iter:   8 22:00:49     7.061103c  -2.73  -1.89
iter:   9 22:00:53     7.060296c  -3.80  -2.22
iter:  10 22:00:56     7.066480c  -3.24  -2.23
iter:  11 22:01:00     7.065329c  -3.89  -2.51
iter:  12 22:01:04     7.062518c  -3.91  -2.54
iter:  13 22:01:08     7.063481c  -4.79  -2.50
iter:  14 22:01:13     7.066371c  -3.99  -2.53
iter:  15 22:01:16     7.066120c  -4.57  -2.67
iter:  16 22:01:20     7.064953c  -4.41  -2.66
iter:  17 22:01:24     7.064879c  -5.06  -2.71
iter:  18 22:01:28     7.065980c  -4.51  -2.77
iter:  19 22:01:32     7.065960c  -5.55  -3.60
iter:  20 22:01:36     7.065949c  -6.28  -3.67
iter:  21 22:01:40     7.065947c  -6.50  -3.70
iter:  22 22:01:44     7.065975c  -6.82  -3.81
iter:  23 22:01:48     7.065995c  -7.23  -3.91
iter:  24 22:01:52     7.065998c  -7.62c -4.08c

Converged after 24 iterations.

Dipole moment: (-0.000000, -0.000000, -0.151175) |e|*Ang

Energy contributions relative to reference atoms: (reference = -1616706.077045)

Kinetic:       +547.436896
Potential:     -460.682946
External:        +0.000000
XC:             -78.055540
Entropy (-ST):   -0.064232
Local:           -1.600295
SIC:             +0.000000
--------------------------
Free energy:     +7.033882
Extrapolated:    +7.065998

Showing only first 2 kpts
 Kpt  Band  Eigenvalues  Occupancy
  0    24      8.03916    2.00000
  0    25      9.16900    1.84040
  0    26     10.95637    0.00000
  0    27     11.08351    0.00000

  1    24      8.03916    2.00000
  1    25      9.16900    1.84040
  1    26     10.95637    0.00000
  1    27     11.08351    0.00000


Fermi level: 9.41351

Gap: 0.230 eV
Transition (v -> c):
  (s=0, k=2, n=25, [0.08, 0.08, 0.25]) -> (s=0, k=9, n=26, [0.25, 0.25, 0.25])
Direct/indirect transitions are different
Direct gap: 0.602 eV
Transition at: (s=0, k=6, n=25, [0.25, -0.08, 0.25])
Timing:                              incl.     excl.
-----------------------------------------------------------
Hamiltonian:                         0.175     0.001   0.0% |
 Atomic:                             0.110     0.000   0.0% |
  XC Correction:                     0.110     0.110   0.1% |
 Calculate atomic Hamiltonians:      0.008     0.008   0.0% |
 Communicate:                        0.000     0.000   0.0% |
 Initialize Hamiltonian:             0.000     0.000   0.0% |
 Poisson:                            0.000     0.000   0.0% |
 XC 3D grid:                         0.056     0.056   0.1% |
LCAO initialization:                 3.405     0.050   0.1% |
 LCAO eigensolver:                   1.620     0.001   0.0% |
  Calculate projections:             0.002     0.002   0.0% |
  DenseAtomicCorrection:             0.004     0.004   0.0% |
  Distribute overlap matrix:         0.000     0.000   0.0% |
  Orbital Layouts:                   0.877     0.877   0.9% |
  Potential matrix:                  0.169     0.169   0.2% |
  Sum over cells:                    0.567     0.567   0.6% |
 LCAO to grid:                       1.578     1.578   1.6% ||
 Set positions (LCAO WFS):           0.157     0.029   0.0% |
  Basic WFS set positions:           0.000     0.000   0.0% |
  Basis functions set positions:     0.000     0.000   0.0% |
  P tci:                             0.073     0.073   0.1% |
  ST tci:                            0.050     0.050   0.1% |
  mktci:                             0.004     0.004   0.0% |
PWDescriptor:                        0.011     0.011   0.0% |
SCF-cycle:                          93.828     0.238   0.2% |
 Davidson:                          82.191     8.336   8.5% |--|
  Apply H:                          15.453    15.255  15.6% |-----|
   HMM T:                            0.198     0.198   0.2% |
  Subspace diag:                    16.939     0.031   0.0% |
   calc_h_matrix:                   15.794     0.646   0.7% |
    Apply H:                        15.148    14.940  15.3% |-----|
     HMM T:                          0.208     0.208   0.2% |
   diagonalize:                      0.180     0.180   0.2% |
   rotate_psi:                       0.934     0.934   1.0% |
  calc. matrices:                   34.360     3.823   3.9% |-|
   Apply H:                         30.537    30.139  30.9% |-----------|
    HMM T:                           0.398     0.398   0.4% |
  diagonalize:                       5.279     5.279   5.4% |-|
  rotate_psi:                        1.825     1.825   1.9% ||
 Density:                            7.365     0.000   0.0% |
  Atomic density matrices:           0.041     0.041   0.0% |
  Mix:                               1.740     1.740   1.8% ||
  Multipole moments:                 0.002     0.002   0.0% |
  Pseudo density:                    5.580     5.548   5.7% |-|
   Symmetrize density:               0.032     0.032   0.0% |
 Hamiltonian:                        3.934     0.017   0.0% |
  Atomic:                            2.733     0.013   0.0% |
   XC Correction:                    2.721     2.721   2.8% ||
  Calculate atomic Hamiltonians:     0.163     0.163   0.2% |
  Communicate:                       0.000     0.000   0.0% |
  Poisson:                           0.011     0.011   0.0% |
  XC 3D grid:                        1.009     1.009   1.0% |
 Orthonormalize:                     0.100     0.001   0.0% |
  calc_s_matrix:                     0.014     0.014   0.0% |
  inverse-cholesky:                  0.002     0.002   0.0% |
  projections:                       0.064     0.064   0.1% |
  rotate_psi_s:                      0.019     0.019   0.0% |
Set symmetry:                        0.002     0.002   0.0% |
Other:                               0.201     0.201   0.2% |
-----------------------------------------------------------
Total:                                        97.622 100.0%

Memory usage: 298.26 MiB
Date: Sun Apr  6 22:01:52 2025
