
  ___ ___ ___ _ _ _  
 |   |   |_  | | | | 
 | | | | | . | | | | 
 |__ |  _|___|_____|  25.1.0
 |___|_|             

User:   georgios-vourvachakis@georgios-vourvachakis-82K2
Date:   Sun Apr  6 22:03:23 2025
Arch:   x86_64
Pid:    589600
CWD:    /home/georgios-vourvachakis/Desktop/DFT_codes
Python: 3.12.3
gpaw:   /home/georgios-vourvachakis/Desktop/DFT_codes/.venv/lib/python3.12/site-packages/gpaw
_gpaw:  /home/georgios-vourvachakis/Desktop/DFT_codes/.venv/lib/python3.12/site-packages/
        _gpaw.cpython-312-x86_64-linux-gnu.so
ase:    /home/georgios-vourvachakis/Desktop/DFT_codes/.venv/lib/python3.12/site-packages/ase (version 3.24.0)
numpy:  /home/georgios-vourvachakis/Desktop/DFT_codes/.venv/lib/python3.12/site-packages/numpy (version 2.2.3)
scipy:  /home/georgios-vourvachakis/Desktop/DFT_codes/.venv/lib/python3.12/site-packages/scipy (version 1.15.1)
libxc:  5.2.3
units:  Angstrom and eV
cores: 1
OpenMP: False
OMP_NUM_THREADS: 1

Input parameters:
  kpts: [6 6 2]
  mode: {ecut: 480.0,
         name: pw}
  xc: PBE

System changes: positions, numbers, cell, pbc, initial_charges, initial_magmoms 

Initialize ...

species:
  W:
    name: Tungsten
    id: 3ed563b7d19992259c4d7db283f2ff78
    Z: 74.0
    valence: 14
    core: 60
    charge: 0.0
    file: /home/georgios-vourvachakis/Desktop/DFT_codes/gpaw_datasets/gpaw-setups-0.9.20000/W.PBE.gz
    compensation charges: {type: gauss,
                           rc: 0.40,
                           lmax: 2}
    cutoffs: {filter: 2.36,
              core: 3.02}
    projectors:
      #              energy  rcut
      - 5s(2.00)   -78.830   1.344
      - 6s(2.00)    -5.697   1.344
      - 5p(6.00)   -43.233   1.355
      - 6p(0.00)    -1.367   1.355
      - 5d(4.00)    -4.494   1.228
      -  d          22.717   1.228
  
    # Using partial waves for W as LCAO basis

  Te:
    name: Tellurium
    id: e44b9ef4772d7e5a1c6a47e6d6496588
    Z: 52.0
    valence: 6
    core: 46
    charge: 0.0
    file: /home/georgios-vourvachakis/Desktop/DFT_codes/gpaw_datasets/gpaw-setups-0.9.20000/Te.PBE.gz
    compensation charges: {type: gauss,
                           rc: 0.36,
                           lmax: 2}
    cutoffs: {filter: 2.09,
              core: 3.17}
    projectors:
      #              energy  rcut
      - 5s(2.00)   -15.089   1.180
      - 5p(4.00)    -5.955   1.196
      -  s          12.123   1.180
      -  p          21.256   1.196
      -  d           0.000   1.238
  
    # Using partial waves for Te as LCAO basis

Reference energy: -1616706.077045  # eV

Spin-paired calculation

Convergence criteria:
 Maximum [total energy] change in last 3 cyles: 0.0005 eV / valence electron
 Maximum integral of absolute [dens]ity change: 0.0001 electrons / valence electron
 Maximum integral of absolute [eigenst]ate change: 4e-08 eV^2 / valence electron
 Maximum number of scf [iter]ations: 333
 (Square brackets indicate name in SCF output, whereas a 'c' in
 the SCF output indicates the quantity has converged.)

Symmetries present (total): 6

  ( 1  1  0)  ( 1  0  0)  ( 0  1  0)  ( 0 -1  0)  (-1  0  0)  (-1 -1  0)
  ( 0 -1  0)  ( 0  1  0)  (-1 -1  0)  (-1  0  0)  ( 1  1  0)  ( 1  0  0)
  ( 0  0  1)  ( 0  0  1)  ( 0  0  1)  ( 0  0  1)  ( 0  0  1)  ( 0  0  1)
Note: your k-points are not as symmetric as your crystal!

72 k-points: 6 x 6 x 2 Monkhorst-Pack grid
21 k-points in the irreducible part of the Brillouin zone
       k-points in crystal coordinates                weights
   0:     0.08333333   -0.08333333   -0.25000000          2/72
   1:     0.08333333   -0.08333333    0.25000000          2/72
   2:     0.08333333    0.08333333    0.25000000          4/72
   3:     0.25000000   -0.25000000   -0.25000000          2/72
   4:     0.25000000   -0.25000000    0.25000000          2/72
   5:     0.25000000   -0.08333333   -0.25000000          4/72
   6:     0.25000000   -0.08333333    0.25000000          4/72
   7:     0.25000000    0.08333333   -0.25000000          4/72
   8:     0.25000000    0.08333333    0.25000000          4/72
   9:     0.25000000    0.25000000    0.25000000          4/72
          ...
  20:     0.41666667    0.41666667    0.25000000          4/72

Wave functions: Plane wave expansion
  Cutoff energy: 480.000 eV
  Number of coefficients (min, max): 3445, 3482
  Pulay-stress correction: 0.000000 eV/Ang^3 (de/decut=0.000000)
  Using Numpy's FFT
  ScaLapack parameters: grid=1x1, blocksize=None
  Wavefunction extrapolation:
    Improved wavefunction reuse through dual PAW basis 

Occupation numbers: Fermi-Dirac:
  width: 0.1000  # eV
 

Eigensolver
   Davidson(niter=2) 

Densities:
  Coarse grid: 18*18*72 grid
  Fine grid: 36*36*144 grid
  Total Charge: 0.000000 

Density mixing:
  Method: separate
  Backend: pulay
  Linear mixing parameter: 0.05
  old densities: 5
  Damping of long wavelength oscillations: 50 

Hamiltonian:
  XC and Coulomb potentials evaluated on a 36*36*144 grid
  Using the PBE Exchange-Correlation functional
  External potential:
    NoExternalPotential
 

XC parameters: PBE with 2 nearest neighbor stencil

Memory estimate:
  Process memory now: 298.79 MiB
  Calculator: 70.82 MiB
    Density: 11.01 MiB
      Arrays: 4.63 MiB
      Localized functions: 4.60 MiB
      Mixer: 1.78 MiB
    Hamiltonian: 3.14 MiB
      Arrays: 3.03 MiB
      XC: 0.00 MiB
      Poisson: 0.00 MiB
      vbar: 0.11 MiB
    Wavefunctions: 56.67 MiB
      Arrays psit_nG: 40.17 MiB
      Eigensolver: 2.38 MiB
      Projections: 1.02 MiB
      Projectors: 11.11 MiB
      PW-descriptor: 2.01 MiB

Total number of cores used: 1

Number of atoms: 6
Number of atomic orbitals: 42
Number of bands in calculation: 36
Number of valence electrons: 52
Bands to converge: occupied

... initialized

Initializing position-dependent things.

Density initialized from atomic densities
Creating initial wave functions:
  36 bands from LCAO basis set

                  
                  
                  
                  
                  
       Te         
                  
                  
                  
                  
                  
                  
         Te       
                  
                  
                  
       W          
                  
                  
                  
                  
                  
                  
         W        
                  
         Te       
                  
                  
                  
                  
                  
                  
                  
                  
                  
       Te         
                  
                  
                  
                  

Positions:
   0 W      1.723000    0.994775    3.530000    ( 0.0000,  0.0000,  0.0000)
   1 W      1.723000   -0.994775   10.590000    ( 0.0000,  0.0000,  0.0000)
   2 Te     1.723000    0.994775   12.284400    ( 0.0000,  0.0000,  0.0000)
   3 Te     1.723000   -0.994775   -5.224400    ( 0.0000,  0.0000,  0.0000)
   4 Te     1.723000    0.994775    1.835600    ( 0.0000,  0.0000,  0.0000)
   5 Te     1.723000   -0.994775   19.344400    ( 0.0000,  0.0000,  0.0000)

Unit cell:
           periodic     x           y           z      points  spacing
  1. axis:    yes    1.723000   -2.984324    0.000000    18     0.1658
  2. axis:    yes    1.723000    2.984324    0.000000    18     0.1658
  3. axis:    yes    0.000000    0.000000   14.120000    72     0.1961

  Lengths:   3.446000   3.446000  14.120000
  Angles:   90.000000  90.000000 120.000000

Effective grid spacing dv^(1/3) = 0.1840

     iter     time        total  log10-change:
                         energy   eigst   dens
iter:   1 22:03:30     1.943277
iter:   2 22:03:34     3.895257   -0.73  -0.97
iter:   3 22:03:38     5.205375   -1.25  -1.11
iter:   4 22:03:42     5.760871   -1.46  -1.24
iter:   5 22:03:45     6.077173   -1.66  -1.41
iter:   6 22:03:49     6.079381   -2.56  -1.87
iter:   7 22:03:53     6.077016c  -3.50  -1.91
iter:   8 22:03:57     6.072976c  -2.75  -1.89
iter:   9 22:04:00     6.072264c  -3.82  -2.22
iter:  10 22:04:04     6.078383c  -3.20  -2.24
iter:  11 22:04:08     6.076864c  -3.89  -2.54
iter:  12 22:04:12     6.074592c  -4.03  -2.55
iter:  13 22:04:16     6.075403c  -4.94  -2.51
iter:  14 22:04:20     6.078253c  -3.67  -2.54
iter:  15 22:04:23     6.077739c  -4.83  -2.72
iter:  16 22:04:27     6.076991c  -4.64  -2.72
iter:  17 22:04:31     6.076954c  -5.13  -2.81
iter:  18 22:04:35     6.077802c  -4.69  -2.87
iter:  19 22:04:38     6.077814c  -5.81  -3.44
iter:  20 22:04:42     6.077819c  -6.38  -3.52
iter:  21 22:04:46     6.077846c  -6.40  -3.60
iter:  22 22:04:50     6.077860c  -6.00  -3.72
iter:  23 22:04:54     6.077864c  -7.06  -4.17c
iter:  24 22:04:58     6.077865c  -8.01c -4.25c

Converged after 24 iterations.

Dipole moment: (0.000000, -0.000000, -0.145835) |e|*Ang

Energy contributions relative to reference atoms: (reference = -1616706.077045)

Kinetic:       +538.711192
Potential:     -453.695229
External:        +0.000000
XC:             -77.335054
Entropy (-ST):   -0.061072
Local:           -1.572508
SIC:             +0.000000
--------------------------
Free energy:     +6.047329
Extrapolated:    +6.077865

Showing only first 2 kpts
 Kpt  Band  Eigenvalues  Occupancy
  0    24      7.96662    2.00000
  0    25      9.08308    1.87273
  0    26     10.91138    0.00000
  0    27     11.03456    0.00000

  1    24      7.96662    2.00000
  1    25      9.08308    1.87273
  1    26     10.91138    0.00000
  1    27     11.03456    0.00000


Fermi level: 9.35197

Gap: 0.254 eV
Transition (v -> c):
  (s=0, k=2, n=25, [0.08, 0.08, 0.25]) -> (s=0, k=9, n=26, [0.25, 0.25, 0.25])
Direct/indirect transitions are different
Direct gap: 0.612 eV
Transition at: (s=0, k=5, n=25, [0.25, -0.08, -0.25])
Timing:                              incl.     excl.
-----------------------------------------------------------
Hamiltonian:                         0.181     0.001   0.0% |
 Atomic:                             0.113     0.001   0.0% |
  XC Correction:                     0.113     0.113   0.1% |
 Calculate atomic Hamiltonians:      0.007     0.007   0.0% |
 Communicate:                        0.000     0.000   0.0% |
 Initialize Hamiltonian:             0.000     0.000   0.0% |
 Poisson:                            0.000     0.000   0.0% |
 XC 3D grid:                         0.060     0.060   0.1% |
LCAO initialization:                 3.590     0.050   0.1% |
 LCAO eigensolver:                   1.761     0.001   0.0% |
  Calculate projections:             0.002     0.002   0.0% |
  DenseAtomicCorrection:             0.005     0.005   0.0% |
  Distribute overlap matrix:         0.001     0.001   0.0% |
  Orbital Layouts:                   0.957     0.957   1.0% |
  Potential matrix:                  0.169     0.169   0.2% |
  Sum over cells:                    0.626     0.626   0.7% |
 LCAO to grid:                       1.621     1.621   1.7% ||
 Set positions (LCAO WFS):           0.158     0.028   0.0% |
  Basic WFS set positions:           0.000     0.000   0.0% |
  Basis functions set positions:     0.000     0.000   0.0% |
  P tci:                             0.075     0.075   0.1% |
  ST tci:                            0.051     0.051   0.1% |
  mktci:                             0.004     0.004   0.0% |
PWDescriptor:                        0.011     0.011   0.0% |
SCF-cycle:                          90.547     0.255   0.3% |
 Davidson:                          79.020     8.154   8.6% |--|
  Apply H:                          15.285    15.095  16.0% |-----|
   HMM T:                            0.189     0.189   0.2% |
  Subspace diag:                    16.775     0.029   0.0% |
   calc_h_matrix:                   15.646     0.627   0.7% |
    Apply H:                        15.020    14.821  15.7% |-----|
     HMM T:                          0.199     0.199   0.2% |
   diagonalize:                      0.178     0.178   0.2% |
   rotate_psi:                       0.922     0.922   1.0% |
  calc. matrices:                   34.136     3.813   4.0% |-|
   Apply H:                         30.323    29.935  31.7% |------------|
    HMM T:                           0.388     0.388   0.4% |
  diagonalize:                       2.884     2.884   3.1% ||
  rotate_psi:                        1.786     1.786   1.9% ||
 Density:                            7.471     0.000   0.0% |
  Atomic density matrices:           0.041     0.041   0.0% |
  Mix:                               1.879     1.879   2.0% ||
  Multipole moments:                 0.002     0.002   0.0% |
  Pseudo density:                    5.549     5.517   5.8% |-|
   Symmetrize density:               0.032     0.032   0.0% |
 Hamiltonian:                        3.697     0.016   0.0% |
  Atomic:                            2.711     0.012   0.0% |
   XC Correction:                    2.698     2.698   2.9% ||
  Calculate atomic Hamiltonians:     0.157     0.157   0.2% |
  Communicate:                       0.000     0.000   0.0% |
  Poisson:                           0.010     0.010   0.0% |
  XC 3D grid:                        0.803     0.803   0.8% |
 Orthonormalize:                     0.105     0.001   0.0% |
  calc_s_matrix:                     0.014     0.014   0.0% |
  inverse-cholesky:                  0.002     0.002   0.0% |
  projections:                       0.067     0.067   0.1% |
  rotate_psi_s:                      0.020     0.020   0.0% |
Set symmetry:                        0.003     0.003   0.0% |
Other:                               0.219     0.219   0.2% |
-----------------------------------------------------------
Total:                                        94.551 100.0%

Memory usage: 298.79 MiB
Date: Sun Apr  6 22:04:58 2025
