
  ___ ___ ___ _ _ _  
 |   |   |_  | | | | 
 | | | | | . | | | | 
 |__ |  _|___|_____|  25.1.0
 |___|_|             

User:   georgios-vourvachakis@georgios-vourvachakis-82K2
Date:   Sun Apr  6 22:27:42 2025
Arch:   x86_64
Pid:    589600
CWD:    /home/georgios-vourvachakis/Desktop/DFT_codes
Python: 3.12.3
gpaw:   /home/georgios-vourvachakis/Desktop/DFT_codes/.venv/lib/python3.12/site-packages/gpaw
_gpaw:  /home/georgios-vourvachakis/Desktop/DFT_codes/.venv/lib/python3.12/site-packages/
        _gpaw.cpython-312-x86_64-linux-gnu.so
ase:    /home/georgios-vourvachakis/Desktop/DFT_codes/.venv/lib/python3.12/site-packages/ase (version 3.24.0)
numpy:  /home/georgios-vourvachakis/Desktop/DFT_codes/.venv/lib/python3.12/site-packages/numpy (version 2.2.3)
scipy:  /home/georgios-vourvachakis/Desktop/DFT_codes/.venv/lib/python3.12/site-packages/scipy (version 1.15.1)
libxc:  5.2.3
units:  Angstrom and eV
cores: 1
OpenMP: False
OMP_NUM_THREADS: 1

Input parameters:
  kpts: [6 6 2]
  mode: {ecut: 480.0,
         name: pw}
  xc: PBE

System changes: positions, numbers, cell, pbc, initial_charges, initial_magmoms 

Initialize ...

species:
  W:
    name: Tungsten
    id: 3ed563b7d19992259c4d7db283f2ff78
    Z: 74.0
    valence: 14
    core: 60
    charge: 0.0
    file: /home/georgios-vourvachakis/Desktop/DFT_codes/gpaw_datasets/gpaw-setups-0.9.20000/W.PBE.gz
    compensation charges: {type: gauss,
                           rc: 0.40,
                           lmax: 2}
    cutoffs: {filter: 2.36,
              core: 3.02}
    projectors:
      #              energy  rcut
      - 5s(2.00)   -78.830   1.344
      - 6s(2.00)    -5.697   1.344
      - 5p(6.00)   -43.233   1.355
      - 6p(0.00)    -1.367   1.355
      - 5d(4.00)    -4.494   1.228
      -  d          22.717   1.228
  
    # Using partial waves for W as LCAO basis

  Te:
    name: Tellurium
    id: e44b9ef4772d7e5a1c6a47e6d6496588
    Z: 52.0
    valence: 6
    core: 46
    charge: 0.0
    file: /home/georgios-vourvachakis/Desktop/DFT_codes/gpaw_datasets/gpaw-setups-0.9.20000/Te.PBE.gz
    compensation charges: {type: gauss,
                           rc: 0.36,
                           lmax: 2}
    cutoffs: {filter: 2.09,
              core: 3.17}
    projectors:
      #              energy  rcut
      - 5s(2.00)   -15.089   1.180
      - 5p(4.00)    -5.955   1.196
      -  s          12.123   1.180
      -  p          21.256   1.196
      -  d           0.000   1.238
  
    # Using partial waves for Te as LCAO basis

Reference energy: -1616706.077045  # eV

Spin-paired calculation

Convergence criteria:
 Maximum [total energy] change in last 3 cyles: 0.0005 eV / valence electron
 Maximum integral of absolute [dens]ity change: 0.0001 electrons / valence electron
 Maximum integral of absolute [eigenst]ate change: 4e-08 eV^2 / valence electron
 Maximum number of scf [iter]ations: 333
 (Square brackets indicate name in SCF output, whereas a 'c' in
 the SCF output indicates the quantity has converged.)

Symmetries present (total): 6

  ( 1  1  0)  ( 1  0  0)  ( 0  1  0)  ( 0 -1  0)  (-1  0  0)  (-1 -1  0)
  ( 0 -1  0)  ( 0  1  0)  (-1 -1  0)  (-1  0  0)  ( 1  1  0)  ( 1  0  0)
  ( 0  0  1)  ( 0  0  1)  ( 0  0  1)  ( 0  0  1)  ( 0  0  1)  ( 0  0  1)
Note: your k-points are not as symmetric as your crystal!

72 k-points: 6 x 6 x 2 Monkhorst-Pack grid
21 k-points in the irreducible part of the Brillouin zone
       k-points in crystal coordinates                weights
   0:     0.08333333   -0.08333333   -0.25000000          2/72
   1:     0.08333333   -0.08333333    0.25000000          2/72
   2:     0.08333333    0.08333333    0.25000000          4/72
   3:     0.25000000   -0.25000000   -0.25000000          2/72
   4:     0.25000000   -0.25000000    0.25000000          2/72
   5:     0.25000000   -0.08333333   -0.25000000          4/72
   6:     0.25000000   -0.08333333    0.25000000          4/72
   7:     0.25000000    0.08333333   -0.25000000          4/72
   8:     0.25000000    0.08333333    0.25000000          4/72
   9:     0.25000000    0.25000000    0.25000000          4/72
          ...
  20:     0.41666667    0.41666667    0.25000000          4/72

Wave functions: Plane wave expansion
  Cutoff energy: 480.000 eV
  Number of coefficients (min, max): 3625, 3664
  Pulay-stress correction: 0.000000 eV/Ang^3 (de/decut=0.000000)
  Using Numpy's FFT
  ScaLapack parameters: grid=1x1, blocksize=None
  Wavefunction extrapolation:
    Improved wavefunction reuse through dual PAW basis 

Occupation numbers: Fermi-Dirac:
  width: 0.1000  # eV
 

Eigensolver
   Davidson(niter=2) 

Densities:
  Coarse grid: 18*18*72 grid
  Fine grid: 36*36*144 grid
  Total Charge: 0.000000 

Density mixing:
  Method: separate
  Backend: pulay
  Linear mixing parameter: 0.05
  old densities: 5
  Damping of long wavelength oscillations: 50 

Hamiltonian:
  XC and Coulomb potentials evaluated on a 36*36*144 grid
  Using the PBE Exchange-Correlation functional
  External potential:
    NoExternalPotential
 

XC parameters: PBE with 2 nearest neighbor stencil

Memory estimate:
  Process memory now: 323.65 MiB
  Calculator: 73.90 MiB
    Density: 11.24 MiB
      Arrays: 4.63 MiB
      Localized functions: 4.83 MiB
      Mixer: 1.78 MiB
    Hamiltonian: 3.14 MiB
      Arrays: 3.03 MiB
      XC: 0.00 MiB
      Poisson: 0.00 MiB
      vbar: 0.12 MiB
    Wavefunctions: 59.52 MiB
      Arrays psit_nG: 42.27 MiB
      Eigensolver: 2.49 MiB
      Projections: 1.02 MiB
      Projectors: 11.69 MiB
      PW-descriptor: 2.06 MiB

Total number of cores used: 1

Number of atoms: 6
Number of atomic orbitals: 42
Number of bands in calculation: 36
Number of valence electrons: 52
Bands to converge: occupied

... initialized

Initializing position-dependent things.

Density initialized from atomic densities
Creating initial wave functions:
  36 bands from LCAO basis set

                  
                  
                  
                  
                  
       Te         
                  
                  
                  
                  
                  
                  
         Te       
                  
                  
                  
       W          
                  
                  
                  
                  
                  
                  
         W        
                  
         Te       
                  
                  
                  
                  
                  
                  
                  
                  
                  
       Te         
                  
                  
                  
                  

Positions:
   0 W      1.773000    1.023642    3.505000    ( 0.0000,  0.0000,  0.0000)
   1 W      1.773000   -1.023642   10.515000    ( 0.0000,  0.0000,  0.0000)
   2 Te     1.773000    1.023642   12.197400    ( 0.0000,  0.0000,  0.0000)
   3 Te     1.773000   -1.023642   -5.187400    ( 0.0000,  0.0000,  0.0000)
   4 Te     1.773000    1.023642    1.822600    ( 0.0000,  0.0000,  0.0000)
   5 Te     1.773000   -1.023642   19.207400    ( 0.0000,  0.0000,  0.0000)

Unit cell:
           periodic     x           y           z      points  spacing
  1. axis:    yes    1.773000   -3.070926    0.000000    18     0.1706
  2. axis:    yes    1.773000    3.070926    0.000000    18     0.1706
  3. axis:    yes    0.000000    0.000000   14.020000    72     0.1947

  Lengths:   3.546000   3.546000  14.020000
  Angles:   90.000000  90.000000 120.000000

Effective grid spacing dv^(1/3) = 0.1871

     iter     time        total  log10-change:
                         energy   eigst   dens
iter:   1 22:27:49     3.356798
iter:   2 22:27:53     5.460115   -0.69  -0.95
iter:   3 22:27:57     6.754031   -1.24  -1.11
iter:   4 22:28:01     7.373446   -1.46  -1.23
iter:   5 22:28:05     7.677262   -1.61  -1.40
iter:   6 22:28:09     7.680657   -2.42  -1.84
iter:   7 22:28:13     7.688907c  -3.43  -1.89
iter:   8 22:28:18     7.678895c  -2.81  -1.97
iter:   9 22:28:23     7.683114c  -3.19  -2.23
iter:  10 22:28:28     7.681823c  -3.87  -2.59
iter:  11 22:28:32     7.683023c  -4.27  -2.63
iter:  12 22:28:36     7.683279c  -4.42  -2.90
iter:  13 22:28:40     7.683395c  -4.83  -3.06
iter:  14 22:28:44     7.683442c  -5.62  -3.21
iter:  15 22:28:48     7.683453c  -5.30  -3.27
iter:  16 22:28:53     7.683443c  -6.51  -3.65
iter:  17 22:28:57     7.683430c  -6.69  -3.69
iter:  18 22:29:01     7.683421c  -7.22  -3.90
iter:  19 22:29:05     7.683428c  -7.89c -3.88
iter:  20 22:29:09     7.683467c  -6.85  -3.89
iter:  21 22:29:13     7.683451c  -6.93  -4.09c
iter:  22 22:29:17     7.683453c  -7.20  -4.19c
iter:  23 22:29:21     7.683457c  -7.89c -4.60c

Converged after 23 iterations.

Dipole moment: (-0.000000, -0.000000, -0.196569) |e|*Ang

Energy contributions relative to reference atoms: (reference = -1616706.077045)

Kinetic:       +538.172283
Potential:     -453.462072
External:        +0.000000
XC:             -75.451108
Entropy (-ST):   -0.075596
Local:           -1.537848
SIC:             +0.000000
--------------------------
Free energy:     +7.645659
Extrapolated:    +7.683457

Showing only first 2 kpts
 Kpt  Band  Eigenvalues  Occupancy
  0    24      7.57739    1.99999
  0    25      8.73497    1.28474
  0    26      9.98802    0.00001
  0    27     10.11983    0.00000

  1    24      7.57739    1.99999
  1    25      8.73497    1.28474
  1    26      9.98802    0.00001
  1    27     10.11983    0.00000


Fermi level: 8.79354

No gap
No difference between direct/indirect transitions
Timing:                              incl.     excl.
-----------------------------------------------------------
Hamiltonian:                         0.193     0.001   0.0% |
 Atomic:                             0.113     0.001   0.0% |
  XC Correction:                     0.112     0.112   0.1% |
 Calculate atomic Hamiltonians:      0.009     0.009   0.0% |
 Communicate:                        0.000     0.000   0.0% |
 Initialize Hamiltonian:             0.000     0.000   0.0% |
 Poisson:                            0.000     0.000   0.0% |
 XC 3D grid:                         0.070     0.070   0.1% |
LCAO initialization:                 3.312     0.050   0.1% |
 LCAO eigensolver:                   1.452     0.001   0.0% |
  Calculate projections:             0.002     0.002   0.0% |
  DenseAtomicCorrection:             0.005     0.005   0.0% |
  Distribute overlap matrix:         0.001     0.001   0.0% |
  Orbital Layouts:                   0.770     0.770   0.8% |
  Potential matrix:                  0.155     0.155   0.2% |
  Sum over cells:                    0.518     0.518   0.5% |
 LCAO to grid:                       1.610     1.610   1.6% ||
 Set positions (LCAO WFS):           0.199     0.025   0.0% |
  Basic WFS set positions:           0.000     0.000   0.0% |
  Basis functions set positions:     0.000     0.000   0.0% |
  P tci:                             0.118     0.118   0.1% |
  ST tci:                            0.052     0.052   0.1% |
  mktci:                             0.004     0.004   0.0% |
PWDescriptor:                        0.011     0.011   0.0% |
SCF-cycle:                          95.291     0.243   0.2% |
 Davidson:                          83.515     8.527   8.6% |--|
  Apply H:                          15.258    15.051  15.2% |-----|
   HMM T:                            0.206     0.206   0.2% |
  Subspace diag:                    16.762     0.033   0.0% |
   calc_h_matrix:                   15.600     0.666   0.7% |
    Apply H:                        14.933    14.713  14.9% |-----|
     HMM T:                          0.220     0.220   0.2% |
   diagonalize:                      0.180     0.180   0.2% |
   rotate_psi:                       0.949     0.949   1.0% |
  calc. matrices:                   33.831     3.891   3.9% |-|
   Apply H:                         29.940    29.517  29.8% |-----------|
    HMM T:                           0.423     0.423   0.4% |
  diagonalize:                       7.287     7.287   7.4% |--|
  rotate_psi:                        1.850     1.850   1.9% ||
 Density:                            7.653     0.000   0.0% |
  Atomic density matrices:           0.043     0.043   0.0% |
  Mix:                               2.040     2.040   2.1% ||
  Multipole moments:                 0.002     0.002   0.0% |
  Pseudo density:                    5.568     5.536   5.6% |-|
   Symmetrize density:               0.032     0.032   0.0% |
 Hamiltonian:                        3.767     0.017   0.0% |
  Atomic:                            2.660     0.013   0.0% |
   XC Correction:                    2.647     2.647   2.7% ||
  Calculate atomic Hamiltonians:     0.192     0.192   0.2% |
  Communicate:                       0.000     0.000   0.0% |
  Poisson:                           0.011     0.011   0.0% |
  XC 3D grid:                        0.888     0.888   0.9% |
 Orthonormalize:                     0.112     0.001   0.0% |
  calc_s_matrix:                     0.015     0.015   0.0% |
  inverse-cholesky:                  0.003     0.003   0.0% |
  projections:                       0.072     0.072   0.1% |
  rotate_psi_s:                      0.021     0.021   0.0% |
Set symmetry:                        0.002     0.002   0.0% |
Other:                               0.213     0.213   0.2% |
-----------------------------------------------------------
Total:                                        99.022 100.0%

Memory usage: 327.92 MiB
Date: Sun Apr  6 22:29:21 2025
