
  ___ ___ ___ _ _ _  
 |   |   |_  | | | | 
 | | | | | . | | | | 
 |__ |  _|___|_____|  25.1.0
 |___|_|             

User:   georgios-vourvachakis@georgios-vourvachakis-82K2
Date:   Sun Apr  6 22:30:45 2025
Arch:   x86_64
Pid:    589600
CWD:    /home/georgios-vourvachakis/Desktop/DFT_codes
Python: 3.12.3
gpaw:   /home/georgios-vourvachakis/Desktop/DFT_codes/.venv/lib/python3.12/site-packages/gpaw
_gpaw:  /home/georgios-vourvachakis/Desktop/DFT_codes/.venv/lib/python3.12/site-packages/
        _gpaw.cpython-312-x86_64-linux-gnu.so
ase:    /home/georgios-vourvachakis/Desktop/DFT_codes/.venv/lib/python3.12/site-packages/ase (version 3.24.0)
numpy:  /home/georgios-vourvachakis/Desktop/DFT_codes/.venv/lib/python3.12/site-packages/numpy (version 2.2.3)
scipy:  /home/georgios-vourvachakis/Desktop/DFT_codes/.venv/lib/python3.12/site-packages/scipy (version 1.15.1)
libxc:  5.2.3
units:  Angstrom and eV
cores: 1
OpenMP: False
OMP_NUM_THREADS: 1

Input parameters:
  kpts: [6 6 2]
  mode: {ecut: 480.0,
         name: pw}
  xc: PBE

System changes: positions, numbers, cell, pbc, initial_charges, initial_magmoms 

Initialize ...

species:
  W:
    name: Tungsten
    id: 3ed563b7d19992259c4d7db283f2ff78
    Z: 74.0
    valence: 14
    core: 60
    charge: 0.0
    file: /home/georgios-vourvachakis/Desktop/DFT_codes/gpaw_datasets/gpaw-setups-0.9.20000/W.PBE.gz
    compensation charges: {type: gauss,
                           rc: 0.40,
                           lmax: 2}
    cutoffs: {filter: 2.36,
              core: 3.02}
    projectors:
      #              energy  rcut
      - 5s(2.00)   -78.830   1.344
      - 6s(2.00)    -5.697   1.344
      - 5p(6.00)   -43.233   1.355
      - 6p(0.00)    -1.367   1.355
      - 5d(4.00)    -4.494   1.228
      -  d          22.717   1.228
  
    # Using partial waves for W as LCAO basis

  Te:
    name: Tellurium
    id: e44b9ef4772d7e5a1c6a47e6d6496588
    Z: 52.0
    valence: 6
    core: 46
    charge: 0.0
    file: /home/georgios-vourvachakis/Desktop/DFT_codes/gpaw_datasets/gpaw-setups-0.9.20000/Te.PBE.gz
    compensation charges: {type: gauss,
                           rc: 0.36,
                           lmax: 2}
    cutoffs: {filter: 2.09,
              core: 3.17}
    projectors:
      #              energy  rcut
      - 5s(2.00)   -15.089   1.180
      - 5p(4.00)    -5.955   1.196
      -  s          12.123   1.180
      -  p          21.256   1.196
      -  d           0.000   1.238
  
    # Using partial waves for Te as LCAO basis

Reference energy: -1616706.077045  # eV

Spin-paired calculation

Convergence criteria:
 Maximum [total energy] change in last 3 cyles: 0.0005 eV / valence electron
 Maximum integral of absolute [dens]ity change: 0.0001 electrons / valence electron
 Maximum integral of absolute [eigenst]ate change: 4e-08 eV^2 / valence electron
 Maximum number of scf [iter]ations: 333
 (Square brackets indicate name in SCF output, whereas a 'c' in
 the SCF output indicates the quantity has converged.)

Symmetries present (total): 6

  ( 1  1  0)  ( 1  0  0)  ( 0  1  0)  ( 0 -1  0)  (-1  0  0)  (-1 -1  0)
  ( 0 -1  0)  ( 0  1  0)  (-1 -1  0)  (-1  0  0)  ( 1  1  0)  ( 1  0  0)
  ( 0  0  1)  ( 0  0  1)  ( 0  0  1)  ( 0  0  1)  ( 0  0  1)  ( 0  0  1)
Note: your k-points are not as symmetric as your crystal!

72 k-points: 6 x 6 x 2 Monkhorst-Pack grid
21 k-points in the irreducible part of the Brillouin zone
       k-points in crystal coordinates                weights
   0:     0.08333333   -0.08333333   -0.25000000          2/72
   1:     0.08333333   -0.08333333    0.25000000          2/72
   2:     0.08333333    0.08333333    0.25000000          4/72
   3:     0.25000000   -0.25000000   -0.25000000          2/72
   4:     0.25000000   -0.25000000    0.25000000          2/72
   5:     0.25000000   -0.08333333   -0.25000000          4/72
   6:     0.25000000   -0.08333333    0.25000000          4/72
   7:     0.25000000    0.08333333   -0.25000000          4/72
   8:     0.25000000    0.08333333    0.25000000          4/72
   9:     0.25000000    0.25000000    0.25000000          4/72
          ...
  20:     0.41666667    0.41666667    0.25000000          4/72

Wave functions: Plane wave expansion
  Cutoff energy: 480.000 eV
  Number of coefficients (min, max): 3635, 3674
  Pulay-stress correction: 0.000000 eV/Ang^3 (de/decut=0.000000)
  Using Numpy's FFT
  ScaLapack parameters: grid=1x1, blocksize=None
  Wavefunction extrapolation:
    Improved wavefunction reuse through dual PAW basis 

Occupation numbers: Fermi-Dirac:
  width: 0.1000  # eV
 

Eigensolver
   Davidson(niter=2) 

Densities:
  Coarse grid: 18*18*72 grid
  Fine grid: 36*36*144 grid
  Total Charge: 0.000000 

Density mixing:
  Method: separate
  Backend: pulay
  Linear mixing parameter: 0.05
  old densities: 5
  Damping of long wavelength oscillations: 50 

Hamiltonian:
  XC and Coulomb potentials evaluated on a 36*36*144 grid
  Using the PBE Exchange-Correlation functional
  External potential:
    NoExternalPotential
 

XC parameters: PBE with 2 nearest neighbor stencil

Memory estimate:
  Process memory now: 327.92 MiB
  Calculator: 74.08 MiB
    Density: 11.25 MiB
      Arrays: 4.63 MiB
      Localized functions: 4.84 MiB
      Mixer: 1.78 MiB
    Hamiltonian: 3.14 MiB
      Arrays: 3.03 MiB
      XC: 0.00 MiB
      Poisson: 0.00 MiB
      vbar: 0.12 MiB
    Wavefunctions: 59.69 MiB
      Arrays psit_nG: 42.38 MiB
      Eigensolver: 2.50 MiB
      Projections: 1.02 MiB
      Projectors: 11.73 MiB
      PW-descriptor: 2.07 MiB

Total number of cores used: 1

Number of atoms: 6
Number of atomic orbitals: 42
Number of bands in calculation: 36
Number of valence electrons: 52
Bands to converge: occupied

... initialized

Initializing position-dependent things.

Density initialized from atomic densities
Creating initial wave functions:
  36 bands from LCAO basis set

                  
                  
                  
                  
                  
       Te         
                  
                  
                  
                  
                  
                  
         Te       
                  
                  
                  
       W          
                  
                  
                  
                  
                  
                  
         W        
                  
         Te       
                  
                  
                  
                  
                  
                  
                  
                  
                  
       Te         
                  
                  
                  
                  

Positions:
   0 W      1.773000    1.023642    3.517500    ( 0.0000,  0.0000,  0.0000)
   1 W      1.773000   -1.023642   10.552500    ( 0.0000,  0.0000,  0.0000)
   2 Te     1.773000    1.023642   12.240900    ( 0.0000,  0.0000,  0.0000)
   3 Te     1.773000   -1.023642   -5.205900    ( 0.0000,  0.0000,  0.0000)
   4 Te     1.773000    1.023642    1.829100    ( 0.0000,  0.0000,  0.0000)
   5 Te     1.773000   -1.023642   19.275900    ( 0.0000,  0.0000,  0.0000)

Unit cell:
           periodic     x           y           z      points  spacing
  1. axis:    yes    1.773000   -3.070926    0.000000    18     0.1706
  2. axis:    yes    1.773000    3.070926    0.000000    18     0.1706
  3. axis:    yes    0.000000    0.000000   14.070000    72     0.1954

  Lengths:   3.546000   3.546000  14.070000
  Angles:   90.000000  90.000000 120.000000

Effective grid spacing dv^(1/3) = 0.1873

     iter     time        total  log10-change:
                         energy   eigst   dens
iter:   1 22:30:52     2.477814
iter:   2 22:30:56     4.507935   -0.70  -0.95
iter:   3 22:31:00     5.765264   -1.25  -1.11
iter:   4 22:31:03     6.381647   -1.46  -1.23
iter:   5 22:31:07     6.683374   -1.62  -1.40
iter:   6 22:31:11     6.686943   -2.43  -1.84
iter:   7 22:31:15     6.694617c  -3.46  -1.90
iter:   8 22:31:19     6.684210c  -2.80  -1.96
iter:   9 22:31:23     6.689194c  -3.20  -2.22
iter:  10 22:31:27     6.687942c  -3.88  -2.59
iter:  11 22:31:32     6.688911c  -4.44  -2.64
iter:  12 22:31:36     6.689301c  -4.38  -2.85
iter:  13 22:31:40     6.689447c  -4.49  -3.02
iter:  14 22:31:44     6.689462c  -5.70  -3.25
iter:  15 22:31:48     6.689423c  -5.87  -3.30
iter:  16 22:31:52     6.689391c  -5.49  -3.45
iter:  17 22:31:56     6.689453c  -5.81  -3.54
iter:  18 22:32:00     6.689492c  -6.36  -3.76
iter:  19 22:32:04     6.689506c  -6.95  -3.83
iter:  20 22:32:08     6.689502c  -7.69c -3.99
iter:  21 22:32:12     6.689500c  -7.38  -4.11c
iter:  22 22:32:16     6.689502c  -8.43c -4.22c

Converged after 22 iterations.

Dipole moment: (-0.000000, 0.000000, -0.190615) |e|*Ang

Energy contributions relative to reference atoms: (reference = -1616706.077045)

Kinetic:       +529.756954
Potential:     -446.769271
External:        +0.000000
XC:             -74.740516
Entropy (-ST):   -0.072494
Local:           -1.521418
SIC:             +0.000000
--------------------------
Free energy:     +6.653255
Extrapolated:    +6.689502

Showing only first 2 kpts
 Kpt  Band  Eigenvalues  Occupancy
  0    24      7.50647    1.99999
  0    25      8.65124    1.39442
  0    26      9.94416    0.00001
  0    27     10.07205    0.00000

  1    24      7.50647    1.99999
  1    25      8.65124    1.39442
  1    26      9.94416    0.00001
  1    27     10.07205    0.00000


Fermi level: 8.73465

No gap
No difference between direct/indirect transitions
Timing:                              incl.     excl.
-----------------------------------------------------------
Hamiltonian:                         0.191     0.001   0.0% |
 Atomic:                             0.118     0.000   0.0% |
  XC Correction:                     0.117     0.117   0.1% |
 Calculate atomic Hamiltonians:      0.007     0.007   0.0% |
 Communicate:                        0.000     0.000   0.0% |
 Initialize Hamiltonian:             0.000     0.000   0.0% |
 Poisson:                            0.000     0.000   0.0% |
 XC 3D grid:                         0.065     0.065   0.1% |
LCAO initialization:                 3.333     0.049   0.1% |
 LCAO eigensolver:                   1.547     0.001   0.0% |
  Calculate projections:             0.002     0.002   0.0% |
  DenseAtomicCorrection:             0.008     0.008   0.0% |
  Distribute overlap matrix:         0.001     0.001   0.0% |
  Orbital Layouts:                   0.821     0.821   0.9% |
  Potential matrix:                  0.150     0.150   0.2% |
  Sum over cells:                    0.565     0.565   0.6% |
 LCAO to grid:                       1.584     1.584   1.7% ||
 Set positions (LCAO WFS):           0.153     0.025   0.0% |
  Basic WFS set positions:           0.000     0.000   0.0% |
  Basis functions set positions:     0.000     0.000   0.0% |
  P tci:                             0.072     0.072   0.1% |
  ST tci:                            0.051     0.051   0.1% |
  mktci:                             0.004     0.004   0.0% |
PWDescriptor:                        0.011     0.011   0.0% |
SCF-cycle:                          87.676     0.262   0.3% |
 Davidson:                          76.570     8.130   8.9% |---|
  Apply H:                          14.169    13.985  15.3% |-----|
   HMM T:                            0.184     0.184   0.2% |
  Subspace diag:                    15.735     0.029   0.0% |
   calc_h_matrix:                   14.617     0.616   0.7% |
    Apply H:                        14.001    13.807  15.1% |-----|
     HMM T:                          0.194     0.194   0.2% |
   diagonalize:                      0.167     0.167   0.2% |
   rotate_psi:                       0.923     0.923   1.0% |
  calc. matrices:                   31.785     3.731   4.1% |-|
   Apply H:                         28.054    27.688  30.3% |-----------|
    HMM T:                           0.366     0.366   0.4% |
  diagonalize:                       4.940     4.940   5.4% |-|
  rotate_psi:                        1.810     1.810   2.0% ||
 Density:                            7.322     0.000   0.0% |
  Atomic density matrices:           0.038     0.038   0.0% |
  Mix:                               2.105     2.105   2.3% ||
  Multipole moments:                 0.002     0.002   0.0% |
  Pseudo density:                    5.177     5.148   5.6% |-|
   Symmetrize density:               0.029     0.029   0.0% |
 Hamiltonian:                        3.410     0.016   0.0% |
  Atomic:                            2.469     0.012   0.0% |
   XC Correction:                    2.457     2.457   2.7% ||
  Calculate atomic Hamiltonians:     0.192     0.192   0.2% |
  Communicate:                       0.000     0.000   0.0% |
  Poisson:                           0.010     0.010   0.0% |
  XC 3D grid:                        0.723     0.723   0.8% |
 Orthonormalize:                     0.111     0.001   0.0% |
  calc_s_matrix:                     0.016     0.016   0.0% |
  inverse-cholesky:                  0.002     0.002   0.0% |
  projections:                       0.071     0.071   0.1% |
  rotate_psi_s:                      0.021     0.021   0.0% |
Set symmetry:                        0.002     0.002   0.0% |
Other:                               0.239     0.239   0.3% |
-----------------------------------------------------------
Total:                                        91.452 100.0%

Memory usage: 327.92 MiB
Date: Sun Apr  6 22:32:16 2025
