
  ___ ___ ___ _ _ _  
 |   |   |_  | | | | 
 | | | | | . | | | | 
 |__ |  _|___|_____|  25.1.0
 |___|_|             

User:   georgios-vourvachakis@georgios-vourvachakis-82K2
Date:   Sun Apr  6 22:32:16 2025
Arch:   x86_64
Pid:    589600
CWD:    /home/georgios-vourvachakis/Desktop/DFT_codes
Python: 3.12.3
gpaw:   /home/georgios-vourvachakis/Desktop/DFT_codes/.venv/lib/python3.12/site-packages/gpaw
_gpaw:  /home/georgios-vourvachakis/Desktop/DFT_codes/.venv/lib/python3.12/site-packages/
        _gpaw.cpython-312-x86_64-linux-gnu.so
ase:    /home/georgios-vourvachakis/Desktop/DFT_codes/.venv/lib/python3.12/site-packages/ase (version 3.24.0)
numpy:  /home/georgios-vourvachakis/Desktop/DFT_codes/.venv/lib/python3.12/site-packages/numpy (version 2.2.3)
scipy:  /home/georgios-vourvachakis/Desktop/DFT_codes/.venv/lib/python3.12/site-packages/scipy (version 1.15.1)
libxc:  5.2.3
units:  Angstrom and eV
cores: 1
OpenMP: False
OMP_NUM_THREADS: 1

Input parameters:
  kpts: [6 6 2]
  mode: {ecut: 480.0,
         name: pw}
  xc: PBE

System changes: positions, numbers, cell, pbc, initial_charges, initial_magmoms 

Initialize ...

species:
  W:
    name: Tungsten
    id: 3ed563b7d19992259c4d7db283f2ff78
    Z: 74.0
    valence: 14
    core: 60
    charge: 0.0
    file: /home/georgios-vourvachakis/Desktop/DFT_codes/gpaw_datasets/gpaw-setups-0.9.20000/W.PBE.gz
    compensation charges: {type: gauss,
                           rc: 0.40,
                           lmax: 2}
    cutoffs: {filter: 2.36,
              core: 3.02}
    projectors:
      #              energy  rcut
      - 5s(2.00)   -78.830   1.344
      - 6s(2.00)    -5.697   1.344
      - 5p(6.00)   -43.233   1.355
      - 6p(0.00)    -1.367   1.355
      - 5d(4.00)    -4.494   1.228
      -  d          22.717   1.228
  
    # Using partial waves for W as LCAO basis

  Te:
    name: Tellurium
    id: e44b9ef4772d7e5a1c6a47e6d6496588
    Z: 52.0
    valence: 6
    core: 46
    charge: 0.0
    file: /home/georgios-vourvachakis/Desktop/DFT_codes/gpaw_datasets/gpaw-setups-0.9.20000/Te.PBE.gz
    compensation charges: {type: gauss,
                           rc: 0.36,
                           lmax: 2}
    cutoffs: {filter: 2.09,
              core: 3.17}
    projectors:
      #              energy  rcut
      - 5s(2.00)   -15.089   1.180
      - 5p(4.00)    -5.955   1.196
      -  s          12.123   1.180
      -  p          21.256   1.196
      -  d           0.000   1.238
  
    # Using partial waves for Te as LCAO basis

Reference energy: -1616706.077045  # eV

Spin-paired calculation

Convergence criteria:
 Maximum [total energy] change in last 3 cyles: 0.0005 eV / valence electron
 Maximum integral of absolute [dens]ity change: 0.0001 electrons / valence electron
 Maximum integral of absolute [eigenst]ate change: 4e-08 eV^2 / valence electron
 Maximum number of scf [iter]ations: 333
 (Square brackets indicate name in SCF output, whereas a 'c' in
 the SCF output indicates the quantity has converged.)

Symmetries present (total): 6

  ( 1  1  0)  ( 1  0  0)  ( 0  1  0)  ( 0 -1  0)  (-1  0  0)  (-1 -1  0)
  ( 0 -1  0)  ( 0  1  0)  (-1 -1  0)  (-1  0  0)  ( 1  1  0)  ( 1  0  0)
  ( 0  0  1)  ( 0  0  1)  ( 0  0  1)  ( 0  0  1)  ( 0  0  1)  ( 0  0  1)
Note: your k-points are not as symmetric as your crystal!

72 k-points: 6 x 6 x 2 Monkhorst-Pack grid
21 k-points in the irreducible part of the Brillouin zone
       k-points in crystal coordinates                weights
   0:     0.08333333   -0.08333333   -0.25000000          2/72
   1:     0.08333333   -0.08333333    0.25000000          2/72
   2:     0.08333333    0.08333333    0.25000000          4/72
   3:     0.25000000   -0.25000000   -0.25000000          2/72
   4:     0.25000000   -0.25000000    0.25000000          2/72
   5:     0.25000000   -0.08333333   -0.25000000          4/72
   6:     0.25000000   -0.08333333    0.25000000          4/72
   7:     0.25000000    0.08333333   -0.25000000          4/72
   8:     0.25000000    0.08333333    0.25000000          4/72
   9:     0.25000000    0.25000000    0.25000000          4/72
          ...
  20:     0.41666667    0.41666667    0.25000000          4/72

Wave functions: Plane wave expansion
  Cutoff energy: 480.000 eV
  Number of coefficients (min, max): 3645, 3685
  Pulay-stress correction: 0.000000 eV/Ang^3 (de/decut=0.000000)
  Using Numpy's FFT
  ScaLapack parameters: grid=1x1, blocksize=None
  Wavefunction extrapolation:
    Improved wavefunction reuse through dual PAW basis 

Occupation numbers: Fermi-Dirac:
  width: 0.1000  # eV
 

Eigensolver
   Davidson(niter=2) 

Densities:
  Coarse grid: 18*18*72 grid
  Fine grid: 36*36*144 grid
  Total Charge: 0.000000 

Density mixing:
  Method: separate
  Backend: pulay
  Linear mixing parameter: 0.05
  old densities: 5
  Damping of long wavelength oscillations: 50 

Hamiltonian:
  XC and Coulomb potentials evaluated on a 36*36*144 grid
  Using the PBE Exchange-Correlation functional
  External potential:
    NoExternalPotential
 

XC parameters: PBE with 2 nearest neighbor stencil

Memory estimate:
  Process memory now: 327.92 MiB
  Calculator: 74.26 MiB
    Density: 11.27 MiB
      Arrays: 4.63 MiB
      Localized functions: 4.86 MiB
      Mixer: 1.78 MiB
    Hamiltonian: 3.14 MiB
      Arrays: 3.03 MiB
      XC: 0.00 MiB
      Poisson: 0.00 MiB
      vbar: 0.12 MiB
    Wavefunctions: 59.85 MiB
      Arrays psit_nG: 42.51 MiB
      Eigensolver: 2.50 MiB
      Projections: 1.02 MiB
      Projectors: 11.75 MiB
      PW-descriptor: 2.07 MiB

Total number of cores used: 1

Number of atoms: 6
Number of atomic orbitals: 42
Number of bands in calculation: 36
Number of valence electrons: 52
Bands to converge: occupied

... initialized

Initializing position-dependent things.

Density initialized from atomic densities
Creating initial wave functions:
  36 bands from LCAO basis set

                  
                  
                  
                  
                  
       Te         
                  
                  
                  
                  
                  
                  
         Te       
                  
                  
                  
       W          
                  
                  
                  
                  
                  
                  
         W        
                  
         Te       
                  
                  
                  
                  
                  
                  
                  
                  
                  
       Te         
                  
                  
                  
                  

Positions:
   0 W      1.773000    1.023642    3.523750    ( 0.0000,  0.0000,  0.0000)
   1 W      1.773000   -1.023642   10.571250    ( 0.0000,  0.0000,  0.0000)
   2 Te     1.773000    1.023642   12.262650    ( 0.0000,  0.0000,  0.0000)
   3 Te     1.773000   -1.023642   -5.215150    ( 0.0000,  0.0000,  0.0000)
   4 Te     1.773000    1.023642    1.832350    ( 0.0000,  0.0000,  0.0000)
   5 Te     1.773000   -1.023642   19.310150    ( 0.0000,  0.0000,  0.0000)

Unit cell:
           periodic     x           y           z      points  spacing
  1. axis:    yes    1.773000   -3.070926    0.000000    18     0.1706
  2. axis:    yes    1.773000    3.070926    0.000000    18     0.1706
  3. axis:    yes    0.000000    0.000000   14.095000    72     0.1958

  Lengths:   3.546000   3.546000  14.095000
  Angles:   90.000000  90.000000 120.000000

Effective grid spacing dv^(1/3) = 0.1874

     iter     time        total  log10-change:
                         energy   eigst   dens
iter:   1 22:32:23     2.043722
iter:   2 22:32:27     4.038124   -0.70  -0.95
iter:   3 22:32:31     5.277984   -1.26  -1.11
iter:   4 22:32:35     5.892712   -1.46  -1.23
iter:   5 22:32:39     6.193454   -1.63  -1.40
iter:   6 22:32:43     6.197058   -2.43  -1.84
iter:   7 22:32:47     6.204445c  -3.47  -1.90
iter:   8 22:32:51     6.193828c  -2.79  -1.96
iter:   9 22:32:55     6.199204c  -3.20  -2.22
iter:  10 22:32:59     6.197974c  -3.88  -2.59
iter:  11 22:33:02     6.198855c  -4.50  -2.64
iter:  12 22:33:06     6.199292c  -4.37  -2.84
iter:  13 22:33:10     6.199427c  -4.38  -3.01
iter:  14 22:33:14     6.199443c  -5.74  -3.27
iter:  15 22:33:18     6.199425c  -6.10  -3.33
iter:  16 22:33:22     6.199396c  -5.53  -3.42
iter:  17 22:33:26     6.199452c  -5.78  -3.58
iter:  18 22:33:30     6.199488c  -6.38  -3.81
iter:  19 22:33:34     6.199501c  -7.01  -3.88
iter:  20 22:33:38     6.199499c  -7.64c -4.02c

Converged after 20 iterations.

Dipole moment: (-0.000000, 0.000000, -0.188140) |e|*Ang

Energy contributions relative to reference atoms: (reference = -1616706.077045)

Kinetic:       +525.622123
Potential:     -443.475700
External:        +0.000000
XC:             -74.391868
Entropy (-ST):   -0.070923
Local:           -1.519594
SIC:             +0.000000
--------------------------
Free energy:     +6.164037
Extrapolated:    +6.199499

Showing only first 2 kpts
 Kpt  Band  Eigenvalues  Occupancy
  0    24      7.47189    1.99999
  0    25      8.60994    1.44473
  0    26      9.92275    0.00001
  0    27     10.04877    0.00000

  1    24      7.47189    1.99999
  1    25      8.60994    1.44473
  1    26      9.92275    0.00001
  1    27     10.04877    0.00000


Fermi level: 8.70556

No gap
No difference between direct/indirect transitions
Timing:                              incl.     excl.
-----------------------------------------------------------
Hamiltonian:                         0.193     0.001   0.0% |
 Atomic:                             0.113     0.001   0.0% |
  XC Correction:                     0.112     0.112   0.1% |
 Calculate atomic Hamiltonians:      0.007     0.007   0.0% |
 Communicate:                        0.000     0.000   0.0% |
 Initialize Hamiltonian:             0.000     0.000   0.0% |
 Poisson:                            0.000     0.000   0.0% |
 XC 3D grid:                         0.072     0.072   0.1% |
LCAO initialization:                 3.272     0.050   0.1% |
 LCAO eigensolver:                   1.570     0.001   0.0% |
  Calculate projections:             0.002     0.002   0.0% |
  DenseAtomicCorrection:             0.005     0.005   0.0% |
  Distribute overlap matrix:         0.001     0.001   0.0% |
  Orbital Layouts:                   0.866     0.866   1.1% |
  Potential matrix:                  0.147     0.147   0.2% |
  Sum over cells:                    0.549     0.549   0.7% |
 LCAO to grid:                       1.499     1.499   1.8% ||
 Set positions (LCAO WFS):           0.153     0.025   0.0% |
  Basic WFS set positions:           0.000     0.000   0.0% |
  Basis functions set positions:     0.000     0.000   0.0% |
  P tci:                             0.072     0.072   0.1% |
  ST tci:                            0.051     0.051   0.1% |
  mktci:                             0.004     0.004   0.0% |
PWDescriptor:                        0.011     0.011   0.0% |
SCF-cycle:                          78.173     0.235   0.3% |
 Davidson:                          68.277     7.261   8.9% |---|
  Apply H:                          12.929    12.745  15.6% |-----|
   HMM T:                            0.184     0.184   0.2% |
  Subspace diag:                    14.349     0.026   0.0% |
   calc_h_matrix:                   13.335     0.556   0.7% |
    Apply H:                        12.779    12.604  15.4% |-----|
     HMM T:                          0.176     0.176   0.2% |
   diagonalize:                      0.151     0.151   0.2% |
   rotate_psi:                       0.836     0.836   1.0% |
  calc. matrices:                   29.070     3.357   4.1% |-|
   Apply H:                         25.713    25.376  31.0% |-----------|
    HMM T:                           0.337     0.337   0.4% |
  diagonalize:                       3.063     3.063   3.7% ||
  rotate_psi:                        1.605     1.605   2.0% ||
 Density:                            6.433     0.000   0.0% |
  Atomic density matrices:           0.034     0.034   0.0% |
  Mix:                               1.721     1.721   2.1% ||
  Multipole moments:                 0.002     0.002   0.0% |
  Pseudo density:                    4.676     4.649   5.7% |-|
   Symmetrize density:               0.027     0.027   0.0% |
 Hamiltonian:                        3.118     0.014   0.0% |
  Atomic:                            2.243     0.010   0.0% |
   XC Correction:                    2.233     2.233   2.7% ||
  Calculate atomic Hamiltonians:     0.175     0.175   0.2% |
  Communicate:                       0.000     0.000   0.0% |
  Poisson:                           0.010     0.010   0.0% |
  XC 3D grid:                        0.676     0.676   0.8% |
 Orthonormalize:                     0.110     0.002   0.0% |
  calc_s_matrix:                     0.015     0.015   0.0% |
  inverse-cholesky:                  0.002     0.002   0.0% |
  projections:                       0.070     0.070   0.1% |
  rotate_psi_s:                      0.021     0.021   0.0% |
Set symmetry:                        0.002     0.002   0.0% |
Other:                               0.227     0.227   0.3% |
-----------------------------------------------------------
Total:                                        81.878 100.0%

Memory usage: 327.92 MiB
Date: Sun Apr  6 22:33:38 2025
