
  ___ ___ ___ _ _ _  
 |   |   |_  | | | | 
 | | | | | . | | | | 
 |__ |  _|___|_____|  25.1.0
 |___|_|             

User:   georgios-vourvachakis@georgios-vourvachakis-82K2
Date:   Sun Apr  6 22:19:23 2025
Arch:   x86_64
Pid:    589600
CWD:    /home/georgios-vourvachakis/Desktop/DFT_codes
Python: 3.12.3
gpaw:   /home/georgios-vourvachakis/Desktop/DFT_codes/.venv/lib/python3.12/site-packages/gpaw
_gpaw:  /home/georgios-vourvachakis/Desktop/DFT_codes/.venv/lib/python3.12/site-packages/
        _gpaw.cpython-312-x86_64-linux-gnu.so
ase:    /home/georgios-vourvachakis/Desktop/DFT_codes/.venv/lib/python3.12/site-packages/ase (version 3.24.0)
numpy:  /home/georgios-vourvachakis/Desktop/DFT_codes/.venv/lib/python3.12/site-packages/numpy (version 2.2.3)
scipy:  /home/georgios-vourvachakis/Desktop/DFT_codes/.venv/lib/python3.12/site-packages/scipy (version 1.15.1)
libxc:  5.2.3
units:  Angstrom and eV
cores: 1
OpenMP: False
OMP_NUM_THREADS: 1

Input parameters:
  kpts: [6 6 2]
  mode: {ecut: 480.0,
         name: pw}
  xc: PBE

System changes: positions, numbers, cell, pbc, initial_charges, initial_magmoms 

Initialize ...

species:
  W:
    name: Tungsten
    id: 3ed563b7d19992259c4d7db283f2ff78
    Z: 74.0
    valence: 14
    core: 60
    charge: 0.0
    file: /home/georgios-vourvachakis/Desktop/DFT_codes/gpaw_datasets/gpaw-setups-0.9.20000/W.PBE.gz
    compensation charges: {type: gauss,
                           rc: 0.40,
                           lmax: 2}
    cutoffs: {filter: 2.36,
              core: 3.02}
    projectors:
      #              energy  rcut
      - 5s(2.00)   -78.830   1.344
      - 6s(2.00)    -5.697   1.344
      - 5p(6.00)   -43.233   1.355
      - 6p(0.00)    -1.367   1.355
      - 5d(4.00)    -4.494   1.228
      -  d          22.717   1.228
  
    # Using partial waves for W as LCAO basis

  Te:
    name: Tellurium
    id: e44b9ef4772d7e5a1c6a47e6d6496588
    Z: 52.0
    valence: 6
    core: 46
    charge: 0.0
    file: /home/georgios-vourvachakis/Desktop/DFT_codes/gpaw_datasets/gpaw-setups-0.9.20000/Te.PBE.gz
    compensation charges: {type: gauss,
                           rc: 0.36,
                           lmax: 2}
    cutoffs: {filter: 2.09,
              core: 3.17}
    projectors:
      #              energy  rcut
      - 5s(2.00)   -15.089   1.180
      - 5p(4.00)    -5.955   1.196
      -  s          12.123   1.180
      -  p          21.256   1.196
      -  d           0.000   1.238
  
    # Using partial waves for Te as LCAO basis

Reference energy: -1616706.077045  # eV

Spin-paired calculation

Convergence criteria:
 Maximum [total energy] change in last 3 cyles: 0.0005 eV / valence electron
 Maximum integral of absolute [dens]ity change: 0.0001 electrons / valence electron
 Maximum integral of absolute [eigenst]ate change: 4e-08 eV^2 / valence electron
 Maximum number of scf [iter]ations: 333
 (Square brackets indicate name in SCF output, whereas a 'c' in
 the SCF output indicates the quantity has converged.)

Symmetries present (total): 6

  ( 1  1  0)  ( 1  0  0)  ( 0  1  0)  ( 0 -1  0)  (-1  0  0)  (-1 -1  0)
  ( 0 -1  0)  ( 0  1  0)  (-1 -1  0)  (-1  0  0)  ( 1  1  0)  ( 1  0  0)
  ( 0  0  1)  ( 0  0  1)  ( 0  0  1)  ( 0  0  1)  ( 0  0  1)  ( 0  0  1)
Note: your k-points are not as symmetric as your crystal!

72 k-points: 6 x 6 x 2 Monkhorst-Pack grid
21 k-points in the irreducible part of the Brillouin zone
       k-points in crystal coordinates                weights
   0:     0.08333333   -0.08333333   -0.25000000          2/72
   1:     0.08333333   -0.08333333    0.25000000          2/72
   2:     0.08333333    0.08333333    0.25000000          4/72
   3:     0.25000000   -0.25000000   -0.25000000          2/72
   4:     0.25000000   -0.25000000    0.25000000          2/72
   5:     0.25000000   -0.08333333   -0.25000000          4/72
   6:     0.25000000   -0.08333333    0.25000000          4/72
   7:     0.25000000    0.08333333   -0.25000000          4/72
   8:     0.25000000    0.08333333    0.25000000          4/72
   9:     0.25000000    0.25000000    0.25000000          4/72
          ...
  20:     0.41666667    0.41666667    0.25000000          4/72

Wave functions: Plane wave expansion
  Cutoff energy: 480.000 eV
  Number of coefficients (min, max): 3550, 3582
  Pulay-stress correction: 0.000000 eV/Ang^3 (de/decut=0.000000)
  Using Numpy's FFT
  ScaLapack parameters: grid=1x1, blocksize=None
  Wavefunction extrapolation:
    Improved wavefunction reuse through dual PAW basis 

Occupation numbers: Fermi-Dirac:
  width: 0.1000  # eV
 

Eigensolver
   Davidson(niter=2) 

Densities:
  Coarse grid: 18*18*72 grid
  Fine grid: 36*36*144 grid
  Total Charge: 0.000000 

Density mixing:
  Method: separate
  Backend: pulay
  Linear mixing parameter: 0.05
  old densities: 5
  Damping of long wavelength oscillations: 50 

Hamiltonian:
  XC and Coulomb potentials evaluated on a 36*36*144 grid
  Using the PBE Exchange-Correlation functional
  External potential:
    NoExternalPotential
 

XC parameters: PBE with 2 nearest neighbor stencil

Memory estimate:
  Process memory now: 322.84 MiB
  Calculator: 72.54 MiB
    Density: 11.15 MiB
      Arrays: 4.63 MiB
      Localized functions: 4.74 MiB
      Mixer: 1.78 MiB
    Hamiltonian: 3.14 MiB
      Arrays: 3.03 MiB
      XC: 0.00 MiB
      Poisson: 0.00 MiB
      vbar: 0.12 MiB
    Wavefunctions: 58.25 MiB
      Arrays psit_nG: 41.32 MiB
      Eigensolver: 2.44 MiB
      Projections: 1.02 MiB
      Projectors: 11.43 MiB
      PW-descriptor: 2.04 MiB

Total number of cores used: 1

Number of atoms: 6
Number of atomic orbitals: 42
Number of bands in calculation: 36
Number of valence electrons: 52
Bands to converge: occupied

... initialized

Initializing position-dependent things.

Density initialized from atomic densities
Creating initial wave functions:
  36 bands from LCAO basis set

                  
                  
                  
                  
                  
       Te         
                  
                  
                  
                  
                  
                  
         Te       
                  
                  
                  
       W          
                  
                  
                  
                  
                  
                  
         W        
                  
         Te       
                  
                  
                  
                  
                  
                  
                  
                  
                  
       Te         
                  
                  
                  
                  

Positions:
   0 W      1.748000    1.009208    3.530000    ( 0.0000,  0.0000,  0.0000)
   1 W      1.748000   -1.009208   10.590000    ( 0.0000,  0.0000,  0.0000)
   2 Te     1.748000    1.009208   12.284400    ( 0.0000,  0.0000,  0.0000)
   3 Te     1.748000   -1.009208   -5.224400    ( 0.0000,  0.0000,  0.0000)
   4 Te     1.748000    1.009208    1.835600    ( 0.0000,  0.0000,  0.0000)
   5 Te     1.748000   -1.009208   19.344400    ( 0.0000,  0.0000,  0.0000)

Unit cell:
           periodic     x           y           z      points  spacing
  1. axis:    yes    1.748000   -3.027625    0.000000    18     0.1682
  2. axis:    yes    1.748000    3.027625    0.000000    18     0.1682
  3. axis:    yes    0.000000    0.000000   14.120000    72     0.1961

  Lengths:   3.496000   3.496000  14.120000
  Angles:   90.000000  90.000000 120.000000

Effective grid spacing dv^(1/3) = 0.1857

     iter     time        total  log10-change:
                         energy   eigst   dens
iter:   1 22:19:31     1.756176
iter:   2 22:19:35     3.709853   -0.72  -0.96
iter:   3 22:19:39     4.967197   -1.26  -1.11
iter:   4 22:19:42     5.551389   -1.45  -1.23
iter:   5 22:19:47     5.863157   -1.65  -1.41
iter:   6 22:19:51     5.866870   -2.51  -1.85
iter:   7 22:19:55     5.868234c  -3.55  -1.90
iter:   8 22:19:58     5.872366c  -3.79  -1.91
iter:   9 22:20:02     5.850924c  -2.65  -1.92
iter:  10 22:20:06     5.853067c  -2.93  -2.02
iter:  11 22:20:10     5.862444c  -3.48  -2.24
iter:  12 22:20:14     5.866713c  -3.46  -2.47
iter:  13 22:20:18     5.866558c  -4.53  -2.87
iter:  14 22:20:21     5.866514c  -5.45  -2.89
iter:  15 22:20:25     5.866587c  -4.53  -2.94
iter:  16 22:20:29     5.866702c  -5.72  -3.29
iter:  17 22:20:33     5.866720c  -6.27  -3.47
iter:  18 22:20:37     5.866702c  -6.69  -3.48
iter:  19 22:20:41     5.866678c  -6.73  -3.53
iter:  20 22:20:45     5.866685c  -7.05  -3.68
iter:  21 22:20:49     5.866742c  -6.75  -3.83
iter:  22 22:20:53     5.866747c  -7.79c -4.08c

Converged after 22 iterations.

Dipole moment: (0.000000, -0.000000, -0.164789) |e|*Ang

Energy contributions relative to reference atoms: (reference = -1616706.077045)

Kinetic:       +529.700717
Potential:     -446.622997
External:        +0.000000
XC:             -75.624585
Entropy (-ST):   -0.064563
Local:           -1.554106
SIC:             +0.000000
--------------------------
Free energy:     +5.834465
Extrapolated:    +5.866747

Showing only first 2 kpts
 Kpt  Band  Eigenvalues  Occupancy
  0    24      7.69672    2.00000
  0    25      8.82239    1.72887
  0    26     10.39159    0.00000
  0    27     10.51513    0.00000

  1    24      7.69672    2.00000
  1    25      8.82239    1.72887
  1    26     10.39159    0.00000
  1    27     10.51513    0.00000


Fermi level: 9.00765

No gap
No difference between direct/indirect transitions
Timing:                              incl.     excl.
-----------------------------------------------------------
Hamiltonian:                         0.184     0.001   0.0% |
 Atomic:                             0.114     0.001   0.0% |
  XC Correction:                     0.114     0.114   0.1% |
 Calculate atomic Hamiltonians:      0.007     0.007   0.0% |
 Communicate:                        0.000     0.000   0.0% |
 Initialize Hamiltonian:             0.000     0.000   0.0% |
 Poisson:                            0.001     0.001   0.0% |
 XC 3D grid:                         0.061     0.061   0.1% |
LCAO initialization:                 3.527     0.049   0.1% |
 LCAO eigensolver:                   1.481     0.001   0.0% |
  Calculate projections:             0.002     0.002   0.0% |
  DenseAtomicCorrection:             0.015     0.015   0.0% |
  Distribute overlap matrix:         0.001     0.001   0.0% |
  Orbital Layouts:                   0.743     0.743   0.8% |
  Potential matrix:                  0.163     0.163   0.2% |
  Sum over cells:                    0.556     0.556   0.6% |
 LCAO to grid:                       1.782     1.782   2.0% ||
 Set positions (LCAO WFS):           0.215     0.026   0.0% |
  Basic WFS set positions:           0.000     0.000   0.0% |
  Basis functions set positions:     0.000     0.000   0.0% |
  P tci:                             0.133     0.133   0.1% |
  ST tci:                            0.051     0.051   0.1% |
  mktci:                             0.004     0.004   0.0% |
PWDescriptor:                        0.011     0.011   0.0% |
SCF-cycle:                          85.933     0.239   0.3% |
 Davidson:                          75.073     7.730   8.6% |--|
  Apply H:                          14.197    14.019  15.6% |-----|
   HMM T:                            0.177     0.177   0.2% |
  Subspace diag:                    15.590     0.029   0.0% |
   calc_h_matrix:                   14.509     0.593   0.7% |
    Apply H:                        13.916    13.728  15.3% |-----|
     HMM T:                          0.189     0.189   0.2% |
   diagonalize:                      0.171     0.171   0.2% |
   rotate_psi:                       0.882     0.882   1.0% |
  calc. matrices:                   31.752     3.587   4.0% |-|
   Apply H:                         28.166    27.796  30.9% |-----------|
    HMM T:                           0.369     0.369   0.4% |
  diagonalize:                       4.084     4.084   4.5% |-|
  rotate_psi:                        1.720     1.720   1.9% ||
 Density:                            7.033     0.000   0.0% |
  Atomic density matrices:           0.038     0.038   0.0% |
  Mix:                               1.873     1.873   2.1% ||
  Multipole moments:                 0.002     0.002   0.0% |
  Pseudo density:                    5.120     5.091   5.7% |-|
   Symmetrize density:               0.030     0.030   0.0% |
 Hamiltonian:                        3.480     0.015   0.0% |
  Atomic:                            2.458     0.011   0.0% |
   XC Correction:                    2.446     2.446   2.7% ||
  Calculate atomic Hamiltonians:     0.185     0.185   0.2% |
  Communicate:                       0.000     0.000   0.0% |
  Poisson:                           0.010     0.010   0.0% |
  XC 3D grid:                        0.812     0.812   0.9% |
 Orthonormalize:                     0.108     0.001   0.0% |
  calc_s_matrix:                     0.015     0.015   0.0% |
  inverse-cholesky:                  0.003     0.003   0.0% |
  projections:                       0.069     0.069   0.1% |
  rotate_psi_s:                      0.020     0.020   0.0% |
Set symmetry:                        0.003     0.003   0.0% |
Other:                               0.229     0.229   0.3% |
-----------------------------------------------------------
Total:                                        89.887 100.0%

Memory usage: 322.84 MiB
Date: Sun Apr  6 22:20:53 2025
