
  ___ ___ ___ _ _ _  
 |   |   |_  | | | | 
 | | | | | . | | | | 
 |__ |  _|___|_____|  25.1.0
 |___|_|             

User:   georgios-vourvachakis@georgios-vourvachakis-82K2
Date:   Sun Apr  6 22:11:47 2025
Arch:   x86_64
Pid:    589600
CWD:    /home/georgios-vourvachakis/Desktop/DFT_codes
Python: 3.12.3
gpaw:   /home/georgios-vourvachakis/Desktop/DFT_codes/.venv/lib/python3.12/site-packages/gpaw
_gpaw:  /home/georgios-vourvachakis/Desktop/DFT_codes/.venv/lib/python3.12/site-packages/
        _gpaw.cpython-312-x86_64-linux-gnu.so
ase:    /home/georgios-vourvachakis/Desktop/DFT_codes/.venv/lib/python3.12/site-packages/ase (version 3.24.0)
numpy:  /home/georgios-vourvachakis/Desktop/DFT_codes/.venv/lib/python3.12/site-packages/numpy (version 2.2.3)
scipy:  /home/georgios-vourvachakis/Desktop/DFT_codes/.venv/lib/python3.12/site-packages/scipy (version 1.15.1)
libxc:  5.2.3
units:  Angstrom and eV
cores: 1
OpenMP: False
OMP_NUM_THREADS: 1

Input parameters:
  kpts: [6 6 2]
  mode: {ecut: 480.0,
         name: pw}
  xc: PBE

System changes: positions, numbers, cell, pbc, initial_charges, initial_magmoms 

Initialize ...

species:
  W:
    name: Tungsten
    id: 3ed563b7d19992259c4d7db283f2ff78
    Z: 74.0
    valence: 14
    core: 60
    charge: 0.0
    file: /home/georgios-vourvachakis/Desktop/DFT_codes/gpaw_datasets/gpaw-setups-0.9.20000/W.PBE.gz
    compensation charges: {type: gauss,
                           rc: 0.40,
                           lmax: 2}
    cutoffs: {filter: 2.36,
              core: 3.02}
    projectors:
      #              energy  rcut
      - 5s(2.00)   -78.830   1.344
      - 6s(2.00)    -5.697   1.344
      - 5p(6.00)   -43.233   1.355
      - 6p(0.00)    -1.367   1.355
      - 5d(4.00)    -4.494   1.228
      -  d          22.717   1.228
  
    # Using partial waves for W as LCAO basis

  Te:
    name: Tellurium
    id: e44b9ef4772d7e5a1c6a47e6d6496588
    Z: 52.0
    valence: 6
    core: 46
    charge: 0.0
    file: /home/georgios-vourvachakis/Desktop/DFT_codes/gpaw_datasets/gpaw-setups-0.9.20000/Te.PBE.gz
    compensation charges: {type: gauss,
                           rc: 0.36,
                           lmax: 2}
    cutoffs: {filter: 2.09,
              core: 3.17}
    projectors:
      #              energy  rcut
      - 5s(2.00)   -15.089   1.180
      - 5p(4.00)    -5.955   1.196
      -  s          12.123   1.180
      -  p          21.256   1.196
      -  d           0.000   1.238
  
    # Using partial waves for Te as LCAO basis

Reference energy: -1616706.077045  # eV

Spin-paired calculation

Convergence criteria:
 Maximum [total energy] change in last 3 cyles: 0.0005 eV / valence electron
 Maximum integral of absolute [dens]ity change: 0.0001 electrons / valence electron
 Maximum integral of absolute [eigenst]ate change: 4e-08 eV^2 / valence electron
 Maximum number of scf [iter]ations: 333
 (Square brackets indicate name in SCF output, whereas a 'c' in
 the SCF output indicates the quantity has converged.)

Symmetries present (total): 6

  ( 1  1  0)  ( 1  0  0)  ( 0  1  0)  ( 0 -1  0)  (-1  0  0)  (-1 -1  0)
  ( 0 -1  0)  ( 0  1  0)  (-1 -1  0)  (-1  0  0)  ( 1  1  0)  ( 1  0  0)
  ( 0  0  1)  ( 0  0  1)  ( 0  0  1)  ( 0  0  1)  ( 0  0  1)  ( 0  0  1)
Note: your k-points are not as symmetric as your crystal!

72 k-points: 6 x 6 x 2 Monkhorst-Pack grid
21 k-points in the irreducible part of the Brillouin zone
       k-points in crystal coordinates                weights
   0:     0.08333333   -0.08333333   -0.25000000          2/72
   1:     0.08333333   -0.08333333    0.25000000          2/72
   2:     0.08333333    0.08333333    0.25000000          4/72
   3:     0.25000000   -0.25000000   -0.25000000          2/72
   4:     0.25000000   -0.25000000    0.25000000          2/72
   5:     0.25000000   -0.08333333   -0.25000000          4/72
   6:     0.25000000   -0.08333333    0.25000000          4/72
   7:     0.25000000    0.08333333   -0.25000000          4/72
   8:     0.25000000    0.08333333    0.25000000          4/72
   9:     0.25000000    0.25000000    0.25000000          4/72
          ...
  20:     0.41666667    0.41666667    0.25000000          4/72

Wave functions: Plane wave expansion
  Cutoff energy: 480.000 eV
  Number of coefficients (min, max): 3499, 3531
  Pulay-stress correction: 0.000000 eV/Ang^3 (de/decut=0.000000)
  Using Numpy's FFT
  ScaLapack parameters: grid=1x1, blocksize=None
  Wavefunction extrapolation:
    Improved wavefunction reuse through dual PAW basis 

Occupation numbers: Fermi-Dirac:
  width: 0.1000  # eV
 

Eigensolver
   Davidson(niter=2) 

Densities:
  Coarse grid: 18*18*72 grid
  Fine grid: 36*36*144 grid
  Total Charge: 0.000000 

Density mixing:
  Method: separate
  Backend: pulay
  Linear mixing parameter: 0.05
  old densities: 5
  Damping of long wavelength oscillations: 50 

Hamiltonian:
  XC and Coulomb potentials evaluated on a 36*36*144 grid
  Using the PBE Exchange-Correlation functional
  External potential:
    NoExternalPotential
 

XC parameters: PBE with 2 nearest neighbor stencil

Memory estimate:
  Process memory now: 320.81 MiB
  Calculator: 71.68 MiB
    Density: 11.09 MiB
      Arrays: 4.63 MiB
      Localized functions: 4.68 MiB
      Mixer: 1.78 MiB
    Hamiltonian: 3.14 MiB
      Arrays: 3.03 MiB
      XC: 0.00 MiB
      Poisson: 0.00 MiB
      vbar: 0.11 MiB
    Wavefunctions: 57.45 MiB
      Arrays psit_nG: 40.73 MiB
      Eigensolver: 2.41 MiB
      Projections: 1.02 MiB
      Projectors: 11.28 MiB
      PW-descriptor: 2.02 MiB

Total number of cores used: 1

Number of atoms: 6
Number of atomic orbitals: 42
Number of bands in calculation: 36
Number of valence electrons: 52
Bands to converge: occupied

... initialized

Initializing position-dependent things.

Density initialized from atomic densities
Creating initial wave functions:
  36 bands from LCAO basis set

                  
                  
                  
                  
                  
       Te         
                  
                  
                  
                  
                  
                  
         Te       
                  
                  
                  
       W          
                  
                  
                  
                  
                  
                  
         W        
                  
         Te       
                  
                  
                  
                  
                  
                  
                  
                  
                  
       Te         
                  
                  
                  
                  

Positions:
   0 W      1.735500    1.001991    3.530000    ( 0.0000,  0.0000,  0.0000)
   1 W      1.735500   -1.001991   10.590000    ( 0.0000,  0.0000,  0.0000)
   2 Te     1.735500    1.001991   12.284400    ( 0.0000,  0.0000,  0.0000)
   3 Te     1.735500   -1.001991   -5.224400    ( 0.0000,  0.0000,  0.0000)
   4 Te     1.735500    1.001991    1.835600    ( 0.0000,  0.0000,  0.0000)
   5 Te     1.735500   -1.001991   19.344400    ( 0.0000,  0.0000,  0.0000)

Unit cell:
           periodic     x           y           z      points  spacing
  1. axis:    yes    1.735500   -3.005974    0.000000    18     0.1670
  2. axis:    yes    1.735500    3.005974    0.000000    18     0.1670
  3. axis:    yes    0.000000    0.000000   14.120000    72     0.1961

  Lengths:   3.471000   3.471000  14.120000
  Angles:   90.000000  90.000000 120.000000

Effective grid spacing dv^(1/3) = 0.1848

     iter     time        total  log10-change:
                         energy   eigst   dens
iter:   1 22:11:54     1.843909
iter:   2 22:11:58     3.795941   -0.72  -0.96
iter:   3 22:12:02     5.077173   -1.26  -1.11
iter:   4 22:12:06     5.646655   -1.45  -1.23
iter:   5 22:12:09     5.962243   -1.66  -1.41
iter:   6 22:12:13     5.965305   -2.54  -1.86
iter:   7 22:12:17     5.964482c  -3.52  -1.91
iter:   8 22:12:21     5.959803c  -2.79  -1.90
iter:   9 22:12:25     5.955615c  -3.70  -2.17
iter:  10 22:12:29     5.957740c  -4.09  -2.16
iter:  11 22:12:33     5.961411c  -3.48  -2.18
iter:  12 22:12:37     5.960410c  -3.34  -2.31
iter:  13 22:12:41     5.963441c  -4.42  -2.24
iter:  14 22:12:44     5.968554c  -3.61  -2.28
iter:  15 22:12:48     5.962325c  -3.84  -2.32
iter:  16 22:12:52     5.963306c  -3.73  -2.32
iter:  17 22:12:56     5.963833c  -4.37  -2.69
iter:  18 22:13:00     5.963515c  -4.62  -2.80
iter:  19 22:13:04     5.963931c  -4.64  -2.95
iter:  20 22:13:07     5.963964c  -5.72  -3.19
iter:  21 22:13:11     5.964208c  -5.47  -3.26
iter:  22 22:13:15     5.964337c  -6.07  -3.41
iter:  23 22:13:19     5.964341c  -6.93  -3.51
iter:  24 22:13:23     5.964393c  -6.16  -3.55
iter:  25 22:13:27     5.964410c  -6.81  -3.81
iter:  26 22:13:31     5.964398c  -6.85  -3.89
iter:  27 22:13:34     5.964414c  -7.49c -4.10c

Converged after 27 iterations.

Dipole moment: (-0.000000, -0.000000, -0.155807) |e|*Ang

Energy contributions relative to reference atoms: (reference = -1616706.077045)

Kinetic:       +534.209580
Potential:     -450.191300
External:        +0.000000
XC:             -76.474439
Entropy (-ST):   -0.062687
Local:           -1.548083
SIC:             +0.000000
--------------------------
Free energy:     +5.933070
Extrapolated:    +5.964414

Showing only first 2 kpts
 Kpt  Band  Eigenvalues  Occupancy
  0    24      7.83063    2.00000
  0    25      8.95191    1.81160
  0    26     10.64804    0.00000
  0    27     10.77140    0.00000

  1    24      7.83063    2.00000
  1    25      8.95191    1.81160
  1    26     10.64804    0.00000
  1    27     10.77140    0.00000


Fermi level: 9.17826

Gap: 0.234 eV
Transition (v -> c):
  (s=0, k=2, n=25, [0.08, 0.08, 0.25]) -> (s=0, k=9, n=26, [0.25, 0.25, 0.25])
Direct/indirect transitions are different
Direct gap: 0.600 eV
Transition at: (s=0, k=5, n=25, [0.25, -0.08, -0.25])
Timing:                              incl.     excl.
-----------------------------------------------------------
Hamiltonian:                         0.170     0.001   0.0% |
 Atomic:                             0.116     0.001   0.0% |
  XC Correction:                     0.115     0.115   0.1% |
 Calculate atomic Hamiltonians:      0.008     0.008   0.0% |
 Communicate:                        0.000     0.000   0.0% |
 Initialize Hamiltonian:             0.000     0.000   0.0% |
 Poisson:                            0.000     0.000   0.0% |
 XC 3D grid:                         0.045     0.045   0.0% |
LCAO initialization:                 3.436     0.050   0.0% |
 LCAO eigensolver:                   1.507     0.001   0.0% |
  Calculate projections:             0.002     0.002   0.0% |
  DenseAtomicCorrection:             0.006     0.006   0.0% |
  Distribute overlap matrix:         0.001     0.001   0.0% |
  Orbital Layouts:                   0.813     0.813   0.8% |
  Potential matrix:                  0.167     0.167   0.2% |
  Sum over cells:                    0.517     0.517   0.5% |
 LCAO to grid:                       1.667     1.667   1.5% ||
 Set positions (LCAO WFS):           0.212     0.029   0.0% |
  Basic WFS set positions:           0.000     0.000   0.0% |
  Basis functions set positions:     0.000     0.000   0.0% |
  P tci:                             0.128     0.128   0.1% |
  ST tci:                            0.050     0.050   0.0% |
  mktci:                             0.004     0.004   0.0% |
PWDescriptor:                        0.011     0.011   0.0% |
SCF-cycle:                         103.731     0.288   0.3% |
 Davidson:                          90.471     9.271   8.6% |--|
  Apply H:                          17.299    17.088  15.9% |-----|
   HMM T:                            0.210     0.210   0.2% |
  Subspace diag:                    18.977     0.034   0.0% |
   calc_h_matrix:                   17.709     0.711   0.7% |
    Apply H:                        16.998    16.773  15.6% |-----|
     HMM T:                          0.225     0.225   0.2% |
   diagonalize:                      0.201     0.201   0.2% |
   rotate_psi:                       1.033     1.033   1.0% |
  calc. matrices:                   38.632     4.280   4.0% |-|
   Apply H:                         34.352    33.924  31.5% |------------|
    HMM T:                           0.427     0.427   0.4% |
  diagonalize:                       4.249     4.249   4.0% |-|
  rotate_psi:                        2.044     2.044   1.9% ||
 Density:                            8.503     0.000   0.0% |
  Atomic density matrices:           0.046     0.046   0.0% |
  Mix:                               2.168     2.168   2.0% ||
  Multipole moments:                 0.002     0.002   0.0% |
  Pseudo density:                    6.286     6.250   5.8% |-|
   Symmetrize density:               0.036     0.036   0.0% |
 Hamiltonian:                        4.359     0.018   0.0% |
  Atomic:                            3.046     0.014   0.0% |
   XC Correction:                    3.032     3.032   2.8% ||
  Calculate atomic Hamiltonians:     0.226     0.226   0.2% |
  Communicate:                       0.000     0.000   0.0% |
  Poisson:                           0.011     0.011   0.0% |
  XC 3D grid:                        1.058     1.058   1.0% |
 Orthonormalize:                     0.110     0.001   0.0% |
  calc_s_matrix:                     0.015     0.015   0.0% |
  inverse-cholesky:                  0.003     0.003   0.0% |
  projections:                       0.069     0.069   0.1% |
  rotate_psi_s:                      0.021     0.021   0.0% |
Set symmetry:                        0.002     0.002   0.0% |
Other:                               0.200     0.200   0.2% |
-----------------------------------------------------------
Total:                                       107.551 100.0%

Memory usage: 322.84 MiB
Date: Sun Apr  6 22:13:34 2025
