
  ___ ___ ___ _ _ _  
 |   |   |_  | | | | 
 | | | | | . | | | | 
 |__ |  _|___|_____|  25.1.0
 |___|_|             

User:   georgios-vourvachakis@georgios-vourvachakis-82K2
Date:   Sun Apr  6 21:56:43 2025
Arch:   x86_64
Pid:    589600
CWD:    /home/georgios-vourvachakis/Desktop/DFT_codes
Python: 3.12.3
gpaw:   /home/georgios-vourvachakis/Desktop/DFT_codes/.venv/lib/python3.12/site-packages/gpaw
_gpaw:  /home/georgios-vourvachakis/Desktop/DFT_codes/.venv/lib/python3.12/site-packages/
        _gpaw.cpython-312-x86_64-linux-gnu.so
ase:    /home/georgios-vourvachakis/Desktop/DFT_codes/.venv/lib/python3.12/site-packages/ase (version 3.24.0)
numpy:  /home/georgios-vourvachakis/Desktop/DFT_codes/.venv/lib/python3.12/site-packages/numpy (version 2.2.3)
scipy:  /home/georgios-vourvachakis/Desktop/DFT_codes/.venv/lib/python3.12/site-packages/scipy (version 1.15.1)
libxc:  5.2.3
units:  Angstrom and eV
cores: 1
OpenMP: False
OMP_NUM_THREADS: 1

Input parameters:
  kpts: [6 6 2]
  mode: {ecut: 480.0,
         name: pw}
  xc: PBE

System changes: positions, numbers, cell, pbc, initial_charges, initial_magmoms 

Initialize ...

species:
  W:
    name: Tungsten
    id: 3ed563b7d19992259c4d7db283f2ff78
    Z: 74.0
    valence: 14
    core: 60
    charge: 0.0
    file: /home/georgios-vourvachakis/Desktop/DFT_codes/gpaw_datasets/gpaw-setups-0.9.20000/W.PBE.gz
    compensation charges: {type: gauss,
                           rc: 0.40,
                           lmax: 2}
    cutoffs: {filter: 2.36,
              core: 3.02}
    projectors:
      #              energy  rcut
      - 5s(2.00)   -78.830   1.344
      - 6s(2.00)    -5.697   1.344
      - 5p(6.00)   -43.233   1.355
      - 6p(0.00)    -1.367   1.355
      - 5d(4.00)    -4.494   1.228
      -  d          22.717   1.228
  
    # Using partial waves for W as LCAO basis

  Te:
    name: Tellurium
    id: e44b9ef4772d7e5a1c6a47e6d6496588
    Z: 52.0
    valence: 6
    core: 46
    charge: 0.0
    file: /home/georgios-vourvachakis/Desktop/DFT_codes/gpaw_datasets/gpaw-setups-0.9.20000/Te.PBE.gz
    compensation charges: {type: gauss,
                           rc: 0.36,
                           lmax: 2}
    cutoffs: {filter: 2.09,
              core: 3.17}
    projectors:
      #              energy  rcut
      - 5s(2.00)   -15.089   1.180
      - 5p(4.00)    -5.955   1.196
      -  s          12.123   1.180
      -  p          21.256   1.196
      -  d           0.000   1.238
  
    # Using partial waves for Te as LCAO basis

Reference energy: -1616706.077045  # eV

Spin-paired calculation

Convergence criteria:
 Maximum [total energy] change in last 3 cyles: 0.0005 eV / valence electron
 Maximum integral of absolute [dens]ity change: 0.0001 electrons / valence electron
 Maximum integral of absolute [eigenst]ate change: 4e-08 eV^2 / valence electron
 Maximum number of scf [iter]ations: 333
 (Square brackets indicate name in SCF output, whereas a 'c' in
 the SCF output indicates the quantity has converged.)

Symmetries present (total): 6

  ( 1  1  0)  ( 1  0  0)  ( 0  1  0)  ( 0 -1  0)  (-1  0  0)  (-1 -1  0)
  ( 0 -1  0)  ( 0  1  0)  (-1 -1  0)  (-1  0  0)  ( 1  1  0)  ( 1  0  0)
  ( 0  0  1)  ( 0  0  1)  ( 0  0  1)  ( 0  0  1)  ( 0  0  1)  ( 0  0  1)
Note: your k-points are not as symmetric as your crystal!

72 k-points: 6 x 6 x 2 Monkhorst-Pack grid
21 k-points in the irreducible part of the Brillouin zone
       k-points in crystal coordinates                weights
   0:     0.08333333   -0.08333333   -0.25000000          2/72
   1:     0.08333333   -0.08333333    0.25000000          2/72
   2:     0.08333333    0.08333333    0.25000000          4/72
   3:     0.25000000   -0.25000000   -0.25000000          2/72
   4:     0.25000000   -0.25000000    0.25000000          2/72
   5:     0.25000000   -0.08333333   -0.25000000          4/72
   6:     0.25000000   -0.08333333    0.25000000          4/72
   7:     0.25000000    0.08333333   -0.25000000          4/72
   8:     0.25000000    0.08333333    0.25000000          4/72
   9:     0.25000000    0.25000000    0.25000000          4/72
          ...
  20:     0.41666667    0.41666667    0.25000000          4/72

Wave functions: Plane wave expansion
  Cutoff energy: 480.000 eV
  Number of coefficients (min, max): 3428, 3460
  Pulay-stress correction: 0.000000 eV/Ang^3 (de/decut=0.000000)
  Using Numpy's FFT
  ScaLapack parameters: grid=1x1, blocksize=None
  Wavefunction extrapolation:
    Improved wavefunction reuse through dual PAW basis 

Occupation numbers: Fermi-Dirac:
  width: 0.1000  # eV
 

Eigensolver
   Davidson(niter=2) 

Densities:
  Coarse grid: 18*18*72 grid
  Fine grid: 36*36*144 grid
  Total Charge: 0.000000 

Density mixing:
  Method: separate
  Backend: pulay
  Linear mixing parameter: 0.05
  old densities: 5
  Damping of long wavelength oscillations: 50 

Hamiltonian:
  XC and Coulomb potentials evaluated on a 36*36*144 grid
  Using the PBE Exchange-Correlation functional
  External potential:
    NoExternalPotential
 

XC parameters: PBE with 2 nearest neighbor stencil

Memory estimate:
  Process memory now: 165.14 MiB
  Calculator: 70.44 MiB
    Density: 10.98 MiB
      Arrays: 4.63 MiB
      Localized functions: 4.57 MiB
      Mixer: 1.78 MiB
    Hamiltonian: 3.14 MiB
      Arrays: 3.03 MiB
      XC: 0.00 MiB
      Poisson: 0.00 MiB
      vbar: 0.11 MiB
    Wavefunctions: 56.32 MiB
      Arrays psit_nG: 39.91 MiB
      Eigensolver: 2.36 MiB
      Projections: 1.02 MiB
      Projectors: 11.03 MiB
      PW-descriptor: 2.00 MiB

Total number of cores used: 1

Number of atoms: 6
Number of atomic orbitals: 42
Number of bands in calculation: 36
Number of valence electrons: 52
Bands to converge: occupied

... initialized

Initializing position-dependent things.

Density initialized from atomic densities
Creating initial wave functions:
  36 bands from LCAO basis set

                  
                  
                  
                  
                  
       Te         
                  
                  
                  
                  
                  
                  
         Te       
                  
                  
                  
       W          
                  
                  
                  
                  
                  
                  
         W        
                  
         Te       
                  
                  
                  
                  
                  
                  
                  
                  
                  
       Te         
                  
                  
                  
                  

Positions:
   0 W      1.723000    0.994775    3.505000    ( 0.0000,  0.0000,  0.0000)
   1 W      1.723000   -0.994775   10.515000    ( 0.0000,  0.0000,  0.0000)
   2 Te     1.723000    0.994775   12.197400    ( 0.0000,  0.0000,  0.0000)
   3 Te     1.723000   -0.994775   -5.187400    ( 0.0000,  0.0000,  0.0000)
   4 Te     1.723000    0.994775    1.822600    ( 0.0000,  0.0000,  0.0000)
   5 Te     1.723000   -0.994775   19.207400    ( 0.0000,  0.0000,  0.0000)

Unit cell:
           periodic     x           y           z      points  spacing
  1. axis:    yes    1.723000   -2.984324    0.000000    18     0.1658
  2. axis:    yes    1.723000    2.984324    0.000000    18     0.1658
  3. axis:    yes    0.000000    0.000000   14.020000    72     0.1947

  Lengths:   3.446000   3.446000  14.020000
  Angles:   90.000000  90.000000 120.000000

Effective grid spacing dv^(1/3) = 0.1835

     iter     time        total  log10-change:
                         energy   eigst   dens
iter:   1 21:56:50     3.729614
iter:   2 21:56:54     5.818946   -0.71  -0.95
iter:   3 21:56:57     7.185790   -1.23  -1.11
iter:   4 21:57:01     7.748139   -1.43  -1.24
iter:   5 21:57:05     8.071159   -1.66  -1.41
iter:   6 21:57:09     8.075133   -2.54  -1.86
iter:   7 21:57:12     8.073349c  -3.50  -1.91
iter:   8 21:57:16     8.068365c  -2.72  -1.89
iter:   9 21:57:20     8.066954c  -3.78  -2.20
iter:  10 21:57:24     8.072615c  -3.48  -2.21
iter:  11 21:57:27     8.073177c  -4.04  -2.38
iter:  12 21:57:31     8.068735c  -3.40  -2.45
iter:  13 21:57:35     8.070323c  -4.40  -2.44
iter:  14 21:57:39     8.072621c  -4.42  -2.47
iter:  15 21:57:42     8.071981c  -3.74  -2.54
iter:  16 21:57:46     8.072103c  -4.52  -2.56
iter:  17 21:57:50     8.072200c  -4.65  -2.60
iter:  18 21:57:54     8.072533c  -4.56  -2.74
iter:  19 21:57:58     8.073041c  -4.83  -3.17
iter:  20 21:58:02     8.073108c  -5.96  -3.51
iter:  21 21:58:06     8.073086c  -5.93  -3.60
iter:  22 21:58:09     8.073108c  -6.63  -3.73
iter:  23 21:58:13     8.073103c  -7.22  -3.80
iter:  24 21:58:17     8.073114c  -7.15  -3.86
iter:  25 21:58:21     8.073157c  -6.97  -3.93
iter:  26 21:58:25     8.073149c  -6.93  -4.03c
iter:  27 21:58:28     8.073163c  -7.29  -4.15c
iter:  28 21:58:32     8.073165c  -7.54c -4.28c

Converged after 28 iterations.

Dipole moment: (0.000000, 0.000000, -0.158020) |e|*Ang

Energy contributions relative to reference atoms: (reference = -1616706.077045)

Kinetic:       +555.794059
Potential:     -467.330940
External:        +0.000000
XC:             -78.764431
Entropy (-ST):   -0.067375
Local:           -1.591836
SIC:             +0.000000
--------------------------
Free energy:     +8.039477
Extrapolated:    +8.073165

Showing only first 2 kpts
 Kpt  Band  Eigenvalues  Occupancy
  0    24      8.11363    2.00000
  0    25      9.25615    1.80011
  0    26     11.00193    0.00000
  0    27     11.13309    0.00000

  1    24      8.11363    2.00000
  1    25      9.25615    1.80011
  1    26     11.00193    0.00000
  1    27     11.13309    0.00000


Fermi level: 9.47593

No gap
No difference between direct/indirect transitions
Timing:                              incl.     excl.
-----------------------------------------------------------
Hamiltonian:                         0.175     0.001   0.0% |
 Atomic:                             0.114     0.001   0.0% |
  XC Correction:                     0.113     0.113   0.1% |
 Calculate atomic Hamiltonians:      0.009     0.009   0.0% |
 Communicate:                        0.000     0.000   0.0% |
 Initialize Hamiltonian:             0.000     0.000   0.0% |
 Poisson:                            0.001     0.001   0.0% |
 XC 3D grid:                         0.050     0.050   0.0% |
LCAO initialization:                 3.434     0.049   0.0% |
 LCAO eigensolver:                   1.647     0.001   0.0% |
  Calculate projections:             0.002     0.002   0.0% |
  DenseAtomicCorrection:             0.004     0.004   0.0% |
  Distribute overlap matrix:         0.000     0.000   0.0% |
  Orbital Layouts:                   0.871     0.871   0.8% |
  Potential matrix:                  0.166     0.166   0.2% |
  Sum over cells:                    0.604     0.604   0.6% |
 LCAO to grid:                       1.581     1.581   1.5% ||
 Set positions (LCAO WFS):           0.156     0.027   0.0% |
  Basic WFS set positions:           0.000     0.000   0.0% |
  Basis functions set positions:     0.000     0.000   0.0% |
  P tci:                             0.074     0.074   0.1% |
  ST tci:                            0.050     0.050   0.0% |
  mktci:                             0.004     0.004   0.0% |
PWDescriptor:                        0.011     0.011   0.0% |
SCF-cycle:                         105.025     0.261   0.2% |
 Davidson:                          91.408     9.280   8.5% |--|
  Apply H:                          17.329    17.119  15.7% |-----|
   HMM T:                            0.211     0.211   0.2% |
  Subspace diag:                    19.203     0.034   0.0% |
   calc_h_matrix:                   17.905     0.723   0.7% |
    Apply H:                        17.182    16.953  15.6% |-----|
     HMM T:                          0.229     0.229   0.2% |
   diagonalize:                      0.203     0.203   0.2% |
   rotate_psi:                       1.061     1.061   1.0% |
  calc. matrices:                   38.822     4.314   4.0% |-|
   Apply H:                         34.508    34.073  31.3% |------------|
    HMM T:                           0.436     0.436   0.4% |
  diagonalize:                       4.693     4.693   4.3% |-|
  rotate_psi:                        2.081     2.081   1.9% ||
 Density:                            8.827     0.000   0.0% |
  Atomic density matrices:           0.048     0.048   0.0% |
  Mix:                               2.245     2.245   2.1% ||
  Multipole moments:                 0.002     0.002   0.0% |
  Pseudo density:                    6.531     6.494   6.0% |-|
   Symmetrize density:               0.038     0.038   0.0% |
 Hamiltonian:                        4.433     0.019   0.0% |
  Atomic:                            3.196     0.014   0.0% |
   XC Correction:                    3.182     3.182   2.9% ||
  Calculate atomic Hamiltonians:     0.188     0.188   0.2% |
  Communicate:                       0.000     0.000   0.0% |
  Poisson:                           0.012     0.012   0.0% |
  XC 3D grid:                        1.017     1.017   0.9% |
 Orthonormalize:                     0.097     0.001   0.0% |
  calc_s_matrix:                     0.014     0.014   0.0% |
  inverse-cholesky:                  0.002     0.002   0.0% |
  projections:                       0.061     0.061   0.1% |
  rotate_psi_s:                      0.019     0.019   0.0% |
Set symmetry:                        0.002     0.002   0.0% |
Other:                               0.237     0.237   0.2% |
-----------------------------------------------------------
Total:                                       108.884 100.0%

Memory usage: 281.75 MiB
Date: Sun Apr  6 21:58:32 2025
