
  ___ ___ ___ _ _ _  
 |   |   |_  | | | | 
 | | | | | . | | | | 
 |__ |  _|___|_____|  25.1.0
 |___|_|             

User:   georgios-vourvachakis@georgios-vourvachakis-82K2
Date:   Sun Apr  6 22:18:00 2025
Arch:   x86_64
Pid:    589600
CWD:    /home/georgios-vourvachakis/Desktop/DFT_codes
Python: 3.12.3
gpaw:   /home/georgios-vourvachakis/Desktop/DFT_codes/.venv/lib/python3.12/site-packages/gpaw
_gpaw:  /home/georgios-vourvachakis/Desktop/DFT_codes/.venv/lib/python3.12/site-packages/
        _gpaw.cpython-312-x86_64-linux-gnu.so
ase:    /home/georgios-vourvachakis/Desktop/DFT_codes/.venv/lib/python3.12/site-packages/ase (version 3.24.0)
numpy:  /home/georgios-vourvachakis/Desktop/DFT_codes/.venv/lib/python3.12/site-packages/numpy (version 2.2.3)
scipy:  /home/georgios-vourvachakis/Desktop/DFT_codes/.venv/lib/python3.12/site-packages/scipy (version 1.15.1)
libxc:  5.2.3
units:  Angstrom and eV
cores: 1
OpenMP: False
OMP_NUM_THREADS: 1

Input parameters:
  kpts: [6 6 2]
  mode: {ecut: 480.0,
         name: pw}
  xc: PBE

System changes: positions, numbers, cell, pbc, initial_charges, initial_magmoms 

Initialize ...

species:
  W:
    name: Tungsten
    id: 3ed563b7d19992259c4d7db283f2ff78
    Z: 74.0
    valence: 14
    core: 60
    charge: 0.0
    file: /home/georgios-vourvachakis/Desktop/DFT_codes/gpaw_datasets/gpaw-setups-0.9.20000/W.PBE.gz
    compensation charges: {type: gauss,
                           rc: 0.40,
                           lmax: 2}
    cutoffs: {filter: 2.36,
              core: 3.02}
    projectors:
      #              energy  rcut
      - 5s(2.00)   -78.830   1.344
      - 6s(2.00)    -5.697   1.344
      - 5p(6.00)   -43.233   1.355
      - 6p(0.00)    -1.367   1.355
      - 5d(4.00)    -4.494   1.228
      -  d          22.717   1.228
  
    # Using partial waves for W as LCAO basis

  Te:
    name: Tellurium
    id: e44b9ef4772d7e5a1c6a47e6d6496588
    Z: 52.0
    valence: 6
    core: 46
    charge: 0.0
    file: /home/georgios-vourvachakis/Desktop/DFT_codes/gpaw_datasets/gpaw-setups-0.9.20000/Te.PBE.gz
    compensation charges: {type: gauss,
                           rc: 0.36,
                           lmax: 2}
    cutoffs: {filter: 2.09,
              core: 3.17}
    projectors:
      #              energy  rcut
      - 5s(2.00)   -15.089   1.180
      - 5p(4.00)    -5.955   1.196
      -  s          12.123   1.180
      -  p          21.256   1.196
      -  d           0.000   1.238
  
    # Using partial waves for Te as LCAO basis

Reference energy: -1616706.077045  # eV

Spin-paired calculation

Convergence criteria:
 Maximum [total energy] change in last 3 cyles: 0.0005 eV / valence electron
 Maximum integral of absolute [dens]ity change: 0.0001 electrons / valence electron
 Maximum integral of absolute [eigenst]ate change: 4e-08 eV^2 / valence electron
 Maximum number of scf [iter]ations: 333
 (Square brackets indicate name in SCF output, whereas a 'c' in
 the SCF output indicates the quantity has converged.)

Symmetries present (total): 6

  ( 1  1  0)  ( 1  0  0)  ( 0  1  0)  ( 0 -1  0)  (-1  0  0)  (-1 -1  0)
  ( 0 -1  0)  ( 0  1  0)  (-1 -1  0)  (-1  0  0)  ( 1  1  0)  ( 1  0  0)
  ( 0  0  1)  ( 0  0  1)  ( 0  0  1)  ( 0  0  1)  ( 0  0  1)  ( 0  0  1)
Note: your k-points are not as symmetric as your crystal!

72 k-points: 6 x 6 x 2 Monkhorst-Pack grid
21 k-points in the irreducible part of the Brillouin zone
       k-points in crystal coordinates                weights
   0:     0.08333333   -0.08333333   -0.25000000          2/72
   1:     0.08333333   -0.08333333    0.25000000          2/72
   2:     0.08333333    0.08333333    0.25000000          4/72
   3:     0.25000000   -0.25000000   -0.25000000          2/72
   4:     0.25000000   -0.25000000    0.25000000          2/72
   5:     0.25000000   -0.08333333   -0.25000000          4/72
   6:     0.25000000   -0.08333333    0.25000000          4/72
   7:     0.25000000    0.08333333   -0.25000000          4/72
   8:     0.25000000    0.08333333    0.25000000          4/72
   9:     0.25000000    0.25000000    0.25000000          4/72
          ...
  20:     0.41666667    0.41666667    0.25000000          4/72

Wave functions: Plane wave expansion
  Cutoff energy: 480.000 eV
  Number of coefficients (min, max): 3546, 3575
  Pulay-stress correction: 0.000000 eV/Ang^3 (de/decut=0.000000)
  Using Numpy's FFT
  ScaLapack parameters: grid=1x1, blocksize=None
  Wavefunction extrapolation:
    Improved wavefunction reuse through dual PAW basis 

Occupation numbers: Fermi-Dirac:
  width: 0.1000  # eV
 

Eigensolver
   Davidson(niter=2) 

Densities:
  Coarse grid: 18*18*72 grid
  Fine grid: 36*36*144 grid
  Total Charge: 0.000000 

Density mixing:
  Method: separate
  Backend: pulay
  Linear mixing parameter: 0.05
  old densities: 5
  Damping of long wavelength oscillations: 50 

Hamiltonian:
  XC and Coulomb potentials evaluated on a 36*36*144 grid
  Using the PBE Exchange-Correlation functional
  External potential:
    NoExternalPotential
 

XC parameters: PBE with 2 nearest neighbor stencil

Memory estimate:
  Process memory now: 322.84 MiB
  Calculator: 72.42 MiB
    Density: 11.14 MiB
      Arrays: 4.63 MiB
      Localized functions: 4.73 MiB
      Mixer: 1.78 MiB
    Hamiltonian: 3.14 MiB
      Arrays: 3.03 MiB
      XC: 0.00 MiB
      Poisson: 0.00 MiB
      vbar: 0.12 MiB
    Wavefunctions: 58.14 MiB
      Arrays psit_nG: 41.24 MiB
      Eigensolver: 2.44 MiB
      Projections: 1.02 MiB
      Projectors: 11.42 MiB
      PW-descriptor: 2.04 MiB

Total number of cores used: 1

Number of atoms: 6
Number of atomic orbitals: 42
Number of bands in calculation: 36
Number of valence electrons: 52
Bands to converge: occupied

... initialized

Initializing position-dependent things.

Density initialized from atomic densities
Creating initial wave functions:
  36 bands from LCAO basis set

                  
                  
                  
                  
                  
       Te         
                  
                  
                  
                  
                  
                  
         Te       
                  
                  
                  
       W          
                  
                  
                  
                  
                  
                  
         W        
                  
         Te       
                  
                  
                  
                  
                  
                  
                  
                  
                  
       Te         
                  
                  
                  
                  

Positions:
   0 W      1.748000    1.009208    3.523750    ( 0.0000,  0.0000,  0.0000)
   1 W      1.748000   -1.009208   10.571250    ( 0.0000,  0.0000,  0.0000)
   2 Te     1.748000    1.009208   12.262650    ( 0.0000,  0.0000,  0.0000)
   3 Te     1.748000   -1.009208   -5.215150    ( 0.0000,  0.0000,  0.0000)
   4 Te     1.748000    1.009208    1.832350    ( 0.0000,  0.0000,  0.0000)
   5 Te     1.748000   -1.009208   19.310150    ( 0.0000,  0.0000,  0.0000)

Unit cell:
           periodic     x           y           z      points  spacing
  1. axis:    yes    1.748000   -3.027625    0.000000    18     0.1682
  2. axis:    yes    1.748000    3.027625    0.000000    18     0.1682
  3. axis:    yes    0.000000    0.000000   14.095000    72     0.1958

  Lengths:   3.496000   3.496000  14.095000
  Angles:   90.000000  90.000000 120.000000

Effective grid spacing dv^(1/3) = 0.1856

     iter     time        total  log10-change:
                         energy   eigst   dens
iter:   1 22:18:07     2.191600
iter:   2 22:18:11     4.179912   -0.71  -0.96
iter:   3 22:18:14     5.452533   -1.26  -1.11
iter:   4 22:18:18     6.038763   -1.44  -1.23
iter:   5 22:18:22     6.351333   -1.65  -1.41
iter:   6 22:18:26     6.355375   -2.51  -1.85
iter:   7 22:18:30     6.356964c  -3.55  -1.90
iter:   8 22:18:34     6.358610c  -4.44  -1.91
iter:   9 22:18:38     6.336287c  -2.32  -1.91
iter:  10 22:18:42     6.349509c  -3.49  -2.21
iter:  11 22:18:45     6.354446c  -3.69  -2.44
iter:  12 22:18:49     6.354944c  -4.17  -2.74
iter:  13 22:18:53     6.354779c  -5.60  -2.86
iter:  14 22:18:57     6.355163c  -4.10  -2.80
iter:  15 22:19:00     6.355116c  -5.14  -3.14
iter:  16 22:19:04     6.355161c  -6.07  -3.44
iter:  17 22:19:08     6.355227c  -5.93  -3.54
iter:  18 22:19:12     6.355240c  -7.05  -3.88
iter:  19 22:19:16     6.355237c  -7.66c -3.92
iter:  20 22:19:19     6.355209c  -6.93  -3.98
iter:  21 22:19:23     6.355213c  -8.24c -4.31c

Converged after 21 iterations.

Dipole moment: (0.000000, -0.000000, -0.168250) |e|*Ang

Energy contributions relative to reference atoms: (reference = -1616706.077045)

Kinetic:       +533.904768
Potential:     -449.988234
External:        +0.000000
XC:             -75.978605
Entropy (-ST):   -0.066135
Local:           -1.549647
SIC:             +0.000000
--------------------------
Free energy:     +6.322146
Extrapolated:    +6.355213

Showing only first 2 kpts
 Kpt  Band  Eigenvalues  Occupancy
  0    24      7.73232    2.00000
  0    25      8.86461    1.69958
  0    26     10.41395    0.00000
  0    27     10.53941    0.00000

  1    24      7.73232    2.00000
  1    25      8.86461    1.69958
  1    26     10.41395    0.00000
  1    27     10.53941    0.00000


Fermi level: 9.03790

No gap
No difference between direct/indirect transitions
Timing:                              incl.     excl.
-----------------------------------------------------------
Hamiltonian:                         0.185     0.000   0.0% |
 Atomic:                             0.116     0.001   0.0% |
  XC Correction:                     0.115     0.115   0.1% |
 Calculate atomic Hamiltonians:      0.007     0.007   0.0% |
 Communicate:                        0.000     0.000   0.0% |
 Initialize Hamiltonian:             0.000     0.000   0.0% |
 Poisson:                            0.000     0.000   0.0% |
 XC 3D grid:                         0.061     0.061   0.1% |
LCAO initialization:                 3.182     0.050   0.1% |
 LCAO eigensolver:                   1.378     0.001   0.0% |
  Calculate projections:             0.002     0.002   0.0% |
  DenseAtomicCorrection:             0.011     0.011   0.0% |
  Distribute overlap matrix:         0.001     0.001   0.0% |
  Orbital Layouts:                   0.702     0.702   0.8% |
  Potential matrix:                  0.163     0.163   0.2% |
  Sum over cells:                    0.500     0.500   0.6% |
 LCAO to grid:                       1.594     1.594   1.9% ||
 Set positions (LCAO WFS):           0.158     0.028   0.0% |
  Basic WFS set positions:           0.000     0.000   0.0% |
  Basis functions set positions:     0.000     0.000   0.0% |
  P tci:                             0.075     0.075   0.1% |
  ST tci:                            0.051     0.051   0.1% |
  mktci:                             0.004     0.004   0.0% |
PWDescriptor:                        0.011     0.011   0.0% |
SCF-cycle:                          79.807     0.225   0.3% |
 Davidson:                          69.811     7.317   8.8% |---|
  Apply H:                          13.446    13.274  15.9% |-----|
   HMM T:                            0.172     0.172   0.2% |
  Subspace diag:                    14.712     0.025   0.0% |
   calc_h_matrix:                   13.688     0.556   0.7% |
    Apply H:                        13.132    12.958  15.5% |-----|
     HMM T:                          0.174     0.174   0.2% |
   diagonalize:                      0.156     0.156   0.2% |
   rotate_psi:                       0.843     0.843   1.0% |
  calc. matrices:                   29.911     3.386   4.1% |-|
   Apply H:                         26.524    26.181  31.4% |------------|
    HMM T:                           0.343     0.343   0.4% |
  diagonalize:                       2.812     2.812   3.4% ||
  rotate_psi:                        1.612     1.612   1.9% ||
 Density:                            6.279     0.000   0.0% |
  Atomic density matrices:           0.037     0.037   0.0% |
  Mix:                               1.417     1.417   1.7% ||
  Multipole moments:                 0.002     0.002   0.0% |
  Pseudo density:                    4.824     4.796   5.8% |-|
   Symmetrize density:               0.028     0.028   0.0% |
 Hamiltonian:                        3.386     0.014   0.0% |
  Atomic:                            2.350     0.011   0.0% |
   XC Correction:                    2.339     2.339   2.8% ||
  Calculate atomic Hamiltonians:     0.139     0.139   0.2% |
  Communicate:                       0.000     0.000   0.0% |
  Poisson:                           0.009     0.009   0.0% |
  XC 3D grid:                        0.874     0.874   1.0% |
 Orthonormalize:                     0.107     0.001   0.0% |
  calc_s_matrix:                     0.015     0.015   0.0% |
  inverse-cholesky:                  0.002     0.002   0.0% |
  projections:                       0.069     0.069   0.1% |
  rotate_psi_s:                      0.020     0.020   0.0% |
Set symmetry:                        0.002     0.002   0.0% |
Other:                               0.205     0.205   0.2% |
-----------------------------------------------------------
Total:                                        83.393 100.0%

Memory usage: 322.84 MiB
Date: Sun Apr  6 22:19:23 2025
