
  ___ ___ ___ _ _ _  
 |   |   |_  | | | | 
 | | | | | . | | | | 
 |__ |  _|___|_____|  25.1.0
 |___|_|             

User:   georgios-vourvachakis@georgios-vourvachakis-82K2
Date:   Mon Apr  7 00:31:53 2025
Arch:   x86_64
Pid:    589600
CWD:    /home/georgios-vourvachakis/Desktop/DFT_codes
Python: 3.12.3
gpaw:   /home/georgios-vourvachakis/Desktop/DFT_codes/.venv/lib/python3.12/site-packages/gpaw
_gpaw:  /home/georgios-vourvachakis/Desktop/DFT_codes/.venv/lib/python3.12/site-packages/
        _gpaw.cpython-312-x86_64-linux-gnu.so
ase:    /home/georgios-vourvachakis/Desktop/DFT_codes/.venv/lib/python3.12/site-packages/ase (version 3.24.0)
numpy:  /home/georgios-vourvachakis/Desktop/DFT_codes/.venv/lib/python3.12/site-packages/numpy (version 2.2.3)
scipy:  /home/georgios-vourvachakis/Desktop/DFT_codes/.venv/lib/python3.12/site-packages/scipy (version 1.15.1)
libxc:  5.2.3
units:  Angstrom and eV
cores: 1
OpenMP: False
OMP_NUM_THREADS: 1

Input parameters:
  kpts: [10 10  2]
  mode: {ecut: 600.0,
         name: pw}
  xc: PBE

System changes: positions, numbers, cell, pbc, initial_charges, initial_magmoms 

Initialize ...

species:
  W:
    name: Tungsten
    id: 3ed563b7d19992259c4d7db283f2ff78
    Z: 74.0
    valence: 14
    core: 60
    charge: 0.0
    file: /home/georgios-vourvachakis/Desktop/DFT_codes/gpaw_datasets/gpaw-setups-0.9.20000/W.PBE.gz
    compensation charges: {type: gauss,
                           rc: 0.40,
                           lmax: 2}
    cutoffs: {filter: 2.36,
              core: 3.02}
    projectors:
      #              energy  rcut
      - 5s(2.00)   -78.830   1.344
      - 6s(2.00)    -5.697   1.344
      - 5p(6.00)   -43.233   1.355
      - 6p(0.00)    -1.367   1.355
      - 5d(4.00)    -4.494   1.228
      -  d          22.717   1.228
  
    # Using partial waves for W as LCAO basis

  Te:
    name: Tellurium
    id: e44b9ef4772d7e5a1c6a47e6d6496588
    Z: 52.0
    valence: 6
    core: 46
    charge: 0.0
    file: /home/georgios-vourvachakis/Desktop/DFT_codes/gpaw_datasets/gpaw-setups-0.9.20000/Te.PBE.gz
    compensation charges: {type: gauss,
                           rc: 0.36,
                           lmax: 2}
    cutoffs: {filter: 2.09,
              core: 3.17}
    projectors:
      #              energy  rcut
      - 5s(2.00)   -15.089   1.180
      - 5p(4.00)    -5.955   1.196
      -  s          12.123   1.180
      -  p          21.256   1.196
      -  d           0.000   1.238
  
    # Using partial waves for Te as LCAO basis

Reference energy: -1616706.077045  # eV

Spin-paired calculation

Convergence criteria:
 Maximum [total energy] change in last 3 cyles: 0.0005 eV / valence electron
 Maximum integral of absolute [dens]ity change: 0.0001 electrons / valence electron
 Maximum integral of absolute [eigenst]ate change: 4e-08 eV^2 / valence electron
 Maximum number of scf [iter]ations: 333
 (Square brackets indicate name in SCF output, whereas a 'c' in
 the SCF output indicates the quantity has converged.)

Symmetries present (total): 6

  ( 1  1  0)  ( 1  0  0)  ( 0  1  0)  ( 0 -1  0)  (-1  0  0)  (-1 -1  0)
  ( 0 -1  0)  ( 0  1  0)  (-1 -1  0)  (-1  0  0)  ( 1  1  0)  ( 1  0  0)
  ( 0  0  1)  ( 0  0  1)  ( 0  0  1)  ( 0  0  1)  ( 0  0  1)  ( 0  0  1)
Note: your k-points are not as symmetric as your crystal!

200 k-points: 10 x 10 x 2 Monkhorst-Pack grid
55 k-points in the irreducible part of the Brillouin zone
       k-points in crystal coordinates                weights
   0:     0.05000000   -0.05000000   -0.25000000          2/200
   1:     0.05000000   -0.05000000    0.25000000          2/200
   2:     0.05000000    0.05000000    0.25000000          4/200
   3:     0.15000000   -0.15000000   -0.25000000          2/200
   4:     0.15000000   -0.15000000    0.25000000          2/200
   5:     0.15000000   -0.05000000   -0.25000000          4/200
   6:     0.15000000   -0.05000000    0.25000000          4/200
   7:     0.15000000    0.05000000   -0.25000000          4/200
   8:     0.15000000    0.05000000    0.25000000          4/200
   9:     0.15000000    0.15000000    0.25000000          4/200
          ...
  54:     0.45000000    0.45000000    0.25000000          4/200

Wave functions: Plane wave expansion
  Cutoff energy: 600.000 eV
  Number of coefficients (min, max): 4990, 5066
  Pulay-stress correction: 0.000000 eV/Ang^3 (de/decut=0.000000)
  Using Numpy's FFT
  ScaLapack parameters: grid=1x1, blocksize=None
  Wavefunction extrapolation:
    Improved wavefunction reuse through dual PAW basis 

Occupation numbers: Fermi-Dirac:
  width: 0.1000  # eV
 

Eigensolver
   Davidson(niter=2) 

Densities:
  Coarse grid: 20*20*80 grid
  Fine grid: 40*40*160 grid
  Total Charge: 0.000000 

Density mixing:
  Method: separate
  Backend: pulay
  Linear mixing parameter: 0.05
  old densities: 5
  Damping of long wavelength oscillations: 50 

Hamiltonian:
  XC and Coulomb potentials evaluated on a 40*40*160 grid
  Using the PBE Exchange-Correlation functional
  External potential:
    NoExternalPotential
 

XC parameters: PBE with 2 nearest neighbor stencil

Memory estimate:
  Process memory now: 774.48 MiB
  Calculator: 226.64 MiB
    Density: 15.48 MiB
      Arrays: 6.35 MiB
      Localized functions: 6.69 MiB
      Mixer: 2.44 MiB
    Hamiltonian: 4.31 MiB
      Arrays: 4.15 MiB
      XC: 0.00 MiB
      Poisson: 0.00 MiB
      vbar: 0.16 MiB
    Wavefunctions: 206.84 MiB
      Arrays psit_nG: 153.06 MiB
      Eigensolver: 3.37 MiB
      Projections: 2.66 MiB
      Projectors: 42.29 MiB
      PW-descriptor: 5.47 MiB

Total number of cores used: 1

Number of atoms: 6
Number of atomic orbitals: 42
Number of bands in calculation: 36
Number of valence electrons: 52
Bands to converge: occupied

... initialized

Initializing position-dependent things.

Density initialized from atomic densities
Creating initial wave functions:
  36 bands from LCAO basis set

                  
                  
                  
                  
                  
       Te         
                  
                  
                  
                  
                  
                  
         Te       
                  
                  
                  
       W          
                  
                  
                  
                  
                  
                  
         W        
                  
         Te       
                  
                  
                  
                  
                  
                  
                  
                  
                  
       Te         
                  
                  
                  
                  

Positions:
   0 W      1.760500    1.016425    3.517500    ( 0.0000,  0.0000,  0.0000)
   1 W      1.760500   -1.016425   10.552500    ( 0.0000,  0.0000,  0.0000)
   2 Te     1.760500    1.016425   12.240900    ( 0.0000,  0.0000,  0.0000)
   3 Te     1.760500   -1.016425   -5.205900    ( 0.0000,  0.0000,  0.0000)
   4 Te     1.760500    1.016425    1.829100    ( 0.0000,  0.0000,  0.0000)
   5 Te     1.760500   -1.016425   19.275900    ( 0.0000,  0.0000,  0.0000)

Unit cell:
           periodic     x           y           z      points  spacing
  1. axis:    yes    1.760500   -3.049275    0.000000    20     0.1525
  2. axis:    yes    1.760500    3.049275    0.000000    20     0.1525
  3. axis:    yes    0.000000    0.000000   14.070000    80     0.1759

  Lengths:   3.521000   3.521000  14.070000
  Angles:   90.000000  90.000000 120.000000

Effective grid spacing dv^(1/3) = 0.1678

     iter     time        total  log10-change:
                         energy   eigst   dens
iter:   1 00:32:14     2.527070
iter:   2 00:32:25     4.553269   -0.68  -0.95
iter:   3 00:32:37     5.842940   -1.23  -1.11
iter:   4 00:32:48     6.444027   -1.47  -1.23
iter:   5 00:33:00     6.745314   -1.63  -1.41
iter:   6 00:33:12     6.748374   -2.42  -1.84
iter:   7 00:33:24     6.755390c  -3.40  -1.90
iter:   8 00:33:35     6.745473c  -2.82  -1.98
iter:   9 00:33:47     6.749028c  -3.20  -2.26
iter:  10 00:33:58     6.747864c  -3.93  -2.59
iter:  11 00:34:10     6.749319c  -3.77  -2.62
iter:  12 00:34:22     6.749336c  -4.90  -3.02
iter:  13 00:34:36     6.749338c  -5.74  -3.21
iter:  14 00:34:48     6.749421c  -5.68  -3.24
iter:  15 00:34:59     6.749404c  -6.09  -3.51
iter:  16 00:35:11     6.749434c  -6.61  -3.70
iter:  17 00:35:22     6.749470c  -6.81  -3.79
iter:  18 00:35:34     6.749494c  -6.77  -3.87
iter:  19 00:35:46     6.749494c  -7.56c -4.01c

Converged after 19 iterations.

Dipole moment: (0.000000, -0.000000, -0.178026) |e|*Ang

Energy contributions relative to reference atoms: (reference = -1616706.077045)

Kinetic:       +533.796165
Potential:     -449.954350
External:        +0.000000
XC:             -75.522516
Entropy (-ST):   -0.074208
Local:           -1.532701
SIC:             +0.000000
--------------------------
Free energy:     +6.712390
Extrapolated:    +6.749494

Showing only first 2 kpts
 Kpt  Band  Eigenvalues  Occupancy
  0    24      7.57105    2.00000
  0    25      8.67793    1.80863
  0    26     10.44191    0.00000
  0    27     10.56309    0.00000

  1    24      7.57105    2.00000
  1    25      8.67793    1.80863
  1    26     10.44191    0.00000
  1    27     10.56309    0.00000


Fermi level: 8.90254

No gap
No difference between direct/indirect transitions

Forces in eV/Ang:
  0 W     0.00000    0.00000   77.34265
  1 W    -0.00000    0.00000   77.34265
  2 Te   -0.00000    0.00000    2.05255
  3 Te   -0.00000    0.00000  -79.39451
  4 Te    0.00000    0.00000  -79.39451
  5 Te   -0.00000   -0.00000    2.05255

System changes: positions 

Initializing position-dependent things.

Density initialized from wave functions
                  
                  
                  
                  
                  
       Te         
                  
                  
                  
                  
                  
                  
         Te       
                  
                  
                  
       W          
                  
                  
                  
                  
                  
                  
         W        
                  
         Te       
                  
                  
                  
                  
                  
                  
                  
                  
                  
       Te         
                  
                  
                  
                  

Positions:
   0 W      1.760500    1.016425    3.712331    ( 0.0000,  0.0000,  0.0000)
   1 W      1.760500   -1.016425   10.747331    ( 0.0000,  0.0000,  0.0000)
   2 Te     1.760500    1.016425   12.246071    ( 0.0000,  0.0000,  0.0000)
   3 Te     1.760500   -1.016425   -5.405900    ( 0.0000,  0.0000,  0.0000)
   4 Te     1.760500    1.016425    1.629100    ( 0.0000,  0.0000,  0.0000)
   5 Te     1.760500   -1.016425   19.281071    ( 0.0000,  0.0000,  0.0000)

Unit cell:
           periodic     x           y           z      points  spacing
  1. axis:    yes    1.760500   -3.049275    0.000000    20     0.1525
  2. axis:    yes    1.760500    3.049275    0.000000    20     0.1525
  3. axis:    yes    0.000000    0.000000   14.070000    80     0.1759

  Lengths:   3.521000   3.521000  14.070000
  Angles:   90.000000  90.000000 120.000000

Effective grid spacing dv^(1/3) = 0.1678

     iter     time        total  log10-change:
                         energy   eigst   dens
iter:   1 00:35:59   -46.048830   +0.47
iter:   2 00:36:11   -37.291276   -0.88  -0.70
iter:   3 00:36:23   -25.893443   -0.13  -0.81
iter:   4 00:36:35   -25.756385   -1.99  -1.41
iter:   5 00:36:48   -25.692734   -2.37  -1.52
iter:   6 00:37:00   -25.212150   -1.54  -1.59
iter:   7 00:37:13   -25.197566   -3.17  -1.96
iter:   8 00:37:25   -25.180651   -3.21  -2.02
iter:   9 00:37:37   -25.157515   -2.72  -2.13
iter:  10 00:37:50   -25.140921   -3.20  -2.15
iter:  11 00:38:01   -25.140291c  -3.78  -2.51
iter:  12 00:38:13   -25.140227c  -4.72  -2.61
iter:  13 00:38:25   -25.139347c  -3.81  -2.64
iter:  14 00:38:38   -25.139312c  -4.70  -2.95
iter:  15 00:38:50   -25.139482c  -5.30  -3.12
iter:  16 00:39:02   -25.139521c  -5.87  -3.16
iter:  17 00:39:14   -25.139095c  -5.39  -3.18
iter:  18 00:39:26   -25.139033c  -5.55  -3.35
iter:  19 00:39:37   -25.139076c  -6.06  -3.57
iter:  20 00:39:49   -25.139119c  -6.68  -3.76
iter:  21 00:40:01   -25.139105c  -6.84  -3.98
iter:  22 00:40:13   -25.139095c  -7.38  -4.28c
iter:  23 00:40:24   -25.139094c  -8.50c -4.38c

Converged after 23 iterations.

Dipole moment: (0.000000, -0.000003, -0.593430) |e|*Ang

Energy contributions relative to reference atoms: (reference = -1616706.077045)

Kinetic:       +228.465267
Potential:     -199.411785
External:        +0.000000
XC:             -53.842056
Entropy (-ST):   -0.131649
Local:           -0.284695
SIC:             +0.000000
--------------------------
Free energy:    -25.204918
Extrapolated:   -25.139094

Showing only first 2 kpts
 Kpt  Band  Eigenvalues  Occupancy
  0    24      8.40332    1.91917
  0    25      9.38756    0.00252
  0    26     10.49324    0.00000
  0    27     10.59473    0.00000

  1    24      8.40332    1.91917
  1    25      9.38756    0.00252
  1    26     10.49324    0.00000
  1    27     10.59473    0.00000


Fermi level: 8.72004

No gap
No difference between direct/indirect transitions

Forces in eV/Ang:
  0 W     0.00000    0.00000   13.03966
  1 W    -0.00000   -0.00000   13.04007
  2 Te    0.00000    0.00000    3.55046
  3 Te    0.00000    0.00000  -16.59166
  4 Te   -0.00000    0.00000  -16.59144
  5 Te    0.00000    0.00000    3.55022

System changes: positions 

Initializing position-dependent things.

Density initialized from wave functions
                  
                  
                  
                  
                  
       Te         
                  
                  
                  
                  
                  
                  
         Te       
                  
                  
                  
       W          
                  
                  
                  
                  
                  
                  
         W        
                  
         Te       
                  
                  
                  
                  
                  
                  
                  
                  
                  
       Te         
                  
                  
                  
                  

Positions:
   0 W      1.760500    1.016425    3.731066    ( 0.0000,  0.0000,  0.0000)
   1 W      1.760500   -1.016425   10.766066    ( 0.0000,  0.0000,  0.0000)
   2 Te     1.760500    1.016425   12.303070    ( 0.0000,  0.0000,  0.0000)
   3 Te     1.760500   -1.016425   -5.481660    ( 0.0000,  0.0000,  0.0000)
   4 Te     1.760500    1.016425    1.553340    ( 0.0000,  0.0000,  0.0000)
   5 Te     1.760500   -1.016425   19.338070    ( 0.0000,  0.0000,  0.0000)

Unit cell:
           periodic     x           y           z      points  spacing
  1. axis:    yes    1.760500   -3.049275    0.000000    20     0.1525
  2. axis:    yes    1.760500    3.049275    0.000000    20     0.1525
  3. axis:    yes    0.000000    0.000000   14.070000    80     0.1759

  Lengths:   3.521000   3.521000  14.070000
  Angles:   90.000000  90.000000 120.000000

Effective grid spacing dv^(1/3) = 0.1678

     iter     time        total  log10-change:
                         energy   eigst   dens
iter:   1 00:40:37   -28.096564   -1.30
iter:   2 00:40:48   -27.996874   -2.64  -1.65
iter:   3 00:41:00   -27.896734   -2.37  -1.78
iter:   4 00:41:12   -27.892662   -3.66  -2.17
iter:   5 00:41:23   -27.885624c  -3.95  -2.22
iter:   6 00:41:35   -27.881945c  -3.68  -2.34
iter:   7 00:41:47   -27.877735c  -3.77  -2.47
iter:   8 00:41:59   -27.877481c  -4.86  -2.88
iter:   9 00:42:11   -27.877453c  -4.70  -2.94
iter:  10 00:42:23   -27.877203c  -5.27  -3.13
iter:  11 00:42:35   -27.877240c  -6.35  -3.43
iter:  12 00:42:46   -27.877239c  -7.28  -3.48
iter:  13 00:42:58   -27.877199c  -6.01  -3.48
iter:  14 00:43:10   -27.877210c  -6.56  -3.75
iter:  15 00:43:21   -27.877185c  -7.04  -4.01c
iter:  16 00:43:33   -27.877174c  -7.38  -4.22c
iter:  17 00:43:45   -27.877183c  -8.38c -4.31c

Converged after 17 iterations.

Dipole moment: (0.000000, 0.000017, -0.750140) |e|*Ang

Energy contributions relative to reference atoms: (reference = -1616706.077045)

Kinetic:       +177.121651
Potential:     -155.817662
External:        +0.000000
XC:             -49.025209
Entropy (-ST):   -0.142156
Local:           -0.084885
SIC:             +0.000000
--------------------------
Free energy:    -27.948261
Extrapolated:   -27.877183

Showing only first 2 kpts
 Kpt  Band  Eigenvalues  Occupancy
  0    24      8.38973    1.87138
  0    25      9.37359    0.00155
  0    26     10.42681    0.00000
  0    27     10.53219    0.00000

  1    24      8.38973    1.87138
  1    25      9.37359    0.00155
  1    26     10.42680    0.00000
  1    27     10.53219    0.00000


Fermi level: 8.65749

No gap
No difference between direct/indirect transitions

Forces in eV/Ang:
  0 W     0.00000    0.00000    7.64795
  1 W    -0.00000   -0.00000    7.64644
  2 Te    0.00000    0.00000    2.63767
  3 Te    0.00000   -0.00000  -10.29015
  4 Te   -0.00000    0.00000  -10.29069
  5 Te    0.00000    0.00000    2.63841

System changes: positions 

Initializing position-dependent things.

Density initialized from wave functions
                  
                  
                  
                  
                  
       Te         
                  
                  
                  
                  
                  
                  
                  
         Te       
                  
                  
       W          
                  
                  
                  
                  
                  
                  
         W        
                  
                  
         Te       
                  
                  
                  
                  
                  
                  
                  
                  
                  
       Te         
                  
                  
                  
                  

Positions:
   0 W      1.760500    1.016425    3.752928    ( 0.0000,  0.0000,  0.0000)
   1 W      1.760500   -1.016425   10.787928    ( 0.0000,  0.0000,  0.0000)
   2 Te     1.760500    1.016425   12.416227    ( 0.0000,  0.0000,  0.0000)
   3 Te     1.760500   -1.016425   -5.616890    ( 0.0000,  0.0000,  0.0000)
   4 Te     1.760500    1.016425    1.418110    ( 0.0000,  0.0000,  0.0000)
   5 Te     1.760500   -1.016425   19.451227    ( 0.0000,  0.0000,  0.0000)

Unit cell:
           periodic     x           y           z      points  spacing
  1. axis:    yes    1.760500   -3.049275    0.000000    20     0.1525
  2. axis:    yes    1.760500    3.049275    0.000000    20     0.1525
  3. axis:    yes    0.000000    0.000000   14.070000    80     0.1759

  Lengths:   3.521000   3.521000  14.070000
  Angles:   90.000000  90.000000 120.000000

Effective grid spacing dv^(1/3) = 0.1678

     iter     time        total  log10-change:
                         energy   eigst   dens
iter:   1 00:43:58   -30.574438   -0.94
iter:   2 00:44:10   -30.426108   -2.37  -1.53
iter:   3 00:44:22   -30.272244   -2.22  -1.64
iter:   4 00:44:34   -30.251749   -3.30  -1.91
iter:   5 00:44:46   -30.235551   -3.61  -2.01
iter:   6 00:44:58   -30.225808c  -3.20  -2.13
iter:   7 00:45:10   -30.218104c  -3.45  -2.28
iter:   8 00:45:22   -30.217841c  -4.39  -2.67
iter:   9 00:45:34   -30.217514c  -4.38  -2.74
iter:  10 00:45:46   -30.217348c  -5.16  -2.93
iter:  11 00:45:58   -30.217193c  -5.59  -3.03
iter:  12 00:46:11   -30.217193c  -6.74  -3.30
iter:  13 00:46:24   -30.217165c  -6.45  -3.31
iter:  14 00:46:36   -30.217112c  -5.96  -3.43
iter:  15 00:46:48   -30.217107c  -6.86  -3.75
iter:  16 00:47:00   -30.217108c  -7.23  -3.82
iter:  17 00:47:12   -30.217111c  -7.29  -4.01c
iter:  18 00:47:24   -30.217114c  -7.78c -4.11c

Converged after 18 iterations.

Dipole moment: (0.000000, -0.000006, -1.134133) |e|*Ang

Energy contributions relative to reference atoms: (reference = -1616706.077045)

Kinetic:       +110.147302
Potential:      -98.176984
External:        +0.000000
XC:             -42.209335
Entropy (-ST):   -0.168616
Local:           +0.106211
SIC:             +0.000000
--------------------------
Free energy:    -30.301422
Extrapolated:   -30.217114

Showing only first 2 kpts
 Kpt  Band  Eigenvalues  Occupancy
  0    24      8.35261    1.83869
  0    25      9.31854    0.00145
  0    26     10.26314    0.00000
  0    27     10.37593    0.00000

  1    24      8.35261    1.83869
  1    25      9.31854    0.00145
  1    26     10.26314    0.00000
  1    27     10.37592    0.00000


Fermi level: 8.59595

No gap
No difference between direct/indirect transitions

Forces in eV/Ang:
  0 W     0.00000    0.00000    2.84405
  1 W     0.00000   -0.00000    2.84545
  2 Te    0.00000    0.00000    0.57447
  3 Te   -0.00000    0.00000   -3.42051
  4 Te   -0.00000    0.00000   -3.41957
  5 Te    0.00000   -0.00000    0.57432

System changes: positions 

Initializing position-dependent things.

Density initialized from wave functions
                  
                  
                  
                  
                  
       Te         
                  
                  
                  
                  
                  
                  
         Te       
                  
                  
                  
       W          
                  
                  
                  
                  
                  
                  
         W        
                  
                  
         Te       
                  
                  
                  
                  
                  
                  
                  
                  
                  
       Te         
                  
                  
                  
                  

Positions:
   0 W      1.760500    1.016425    3.766963    ( 0.0000,  0.0000,  0.0000)
   1 W      1.760500   -1.016425   10.801963    ( 0.0000,  0.0000,  0.0000)
   2 Te     1.760500    1.016425   12.463828    ( 0.0000,  0.0000,  0.0000)
   3 Te     1.760500   -1.016425   -5.678610    ( 0.0000,  0.0000,  0.0000)
   4 Te     1.760500    1.016425    1.356390    ( 0.0000,  0.0000,  0.0000)
   5 Te     1.760500   -1.016425   19.498828    ( 0.0000,  0.0000,  0.0000)

Unit cell:
           periodic     x           y           z      points  spacing
  1. axis:    yes    1.760500   -3.049275    0.000000    20     0.1525
  2. axis:    yes    1.760500    3.049275    0.000000    20     0.1525
  3. axis:    yes    0.000000    0.000000   14.070000    80     0.1759

  Lengths:   3.521000   3.521000  14.070000
  Angles:   90.000000  90.000000 120.000000

Effective grid spacing dv^(1/3) = 0.1678

     iter     time        total  log10-change:
                         energy   eigst   dens
iter:   1 00:47:37   -30.648238   -1.65
iter:   2 00:47:49   -30.611556   -3.12  -1.83
iter:   3 00:48:01   -30.582867   -3.00  -1.95
iter:   4 00:48:13   -30.569349   -3.69  -2.13
iter:   5 00:48:25   -30.566886c  -4.31  -2.39
iter:   6 00:48:37   -30.565201c  -3.92  -2.49
iter:   7 00:48:49   -30.563753c  -4.24  -2.62
iter:   8 00:49:01   -30.563695c  -5.00  -2.99
iter:   9 00:49:13   -30.563655c  -5.87  -3.08
iter:  10 00:49:26   -30.563683c  -5.24  -3.20
iter:  11 00:49:37   -30.563680c  -6.50  -3.54
iter:  12 00:49:49   -30.563647c  -6.43  -3.58
iter:  13 00:50:01   -30.563655c  -7.12  -3.67
iter:  14 00:50:13   -30.563646c  -6.78  -3.75
iter:  15 00:50:25   -30.563632c  -7.25  -3.93
iter:  16 00:50:37   -30.563635c  -7.58c -4.04c

Converged after 16 iterations.

Dipole moment: (0.000000, 0.000003, -1.398390) |e|*Ang

Energy contributions relative to reference atoms: (reference = -1616706.077045)

Kinetic:        +88.381641
Potential:      -79.108256
External:        +0.000000
XC:             -39.889082
Entropy (-ST):   -0.193104
Local:           +0.148615
SIC:             +0.000000
--------------------------
Free energy:    -30.660187
Extrapolated:   -30.563635

Showing only first 2 kpts
 Kpt  Band  Eigenvalues  Occupancy
  0    24      8.38192    1.78934
  0    25      9.33330    0.00125
  0    26     10.16670    0.00000
  0    27     10.28015    0.00000

  1    24      8.38192    1.78934
  1    25      9.33330    0.00125
  1    26     10.16670    0.00000
  1    27     10.28015    0.00000


Fermi level: 8.59586

No gap
No difference between direct/indirect transitions

Forces in eV/Ang:
  0 W     0.00000    0.00000    1.58316
  1 W    -0.00000    0.00000    1.58199
  2 Te    0.00000   -0.00000   -0.31990
  3 Te    0.00000    0.00000   -1.26961
  4 Te   -0.00000    0.00000   -1.27004
  5 Te    0.00000   -0.00000   -0.31958

System changes: positions 

Initializing position-dependent things.

Density initialized from wave functions
                  
                  
                  
                  
                  
       Te         
                  
                  
                  
                  
                  
                  
         Te       
                  
                  
                  
       W          
                  
                  
                  
                  
                  
                  
         W        
                  
                  
         Te       
                  
                  
                  
                  
                  
                  
                  
                  
                  
       Te         
                  
                  
                  
                  

Positions:
   0 W      1.760500    1.016425    3.780383    ( 0.0000,  0.0000,  0.0000)
   1 W      1.760500   -1.016425   10.815383    ( 0.0000,  0.0000,  0.0000)
   2 Te     1.760500    1.016425   12.476700    ( 0.0000,  0.0000,  0.0000)
   3 Te     1.760500   -1.016425   -5.705082    ( 0.0000,  0.0000,  0.0000)
   4 Te     1.760500    1.016425    1.329918    ( 0.0000,  0.0000,  0.0000)
   5 Te     1.760500   -1.016425   19.511700    ( 0.0000,  0.0000,  0.0000)

Unit cell:
           periodic     x           y           z      points  spacing
  1. axis:    yes    1.760500   -3.049275    0.000000    20     0.1525
  2. axis:    yes    1.760500    3.049275    0.000000    20     0.1525
  3. axis:    yes    0.000000    0.000000   14.070000    80     0.1759

  Lengths:   3.521000   3.521000  14.070000
  Angles:   90.000000  90.000000 120.000000

Effective grid spacing dv^(1/3) = 0.1678

     iter     time        total  log10-change:
                         energy   eigst   dens
iter:   1 00:50:50   -30.677586   -2.20
iter:   2 00:51:01   -30.652773   -3.67  -1.94
iter:   3 00:51:13   -30.633081   -3.22  -2.07
iter:   4 00:51:25   -30.627339c  -4.09  -2.33
iter:   5 00:51:37   -30.626545c  -4.61  -2.67
iter:   6 00:51:49   -30.626108c  -4.56  -2.82
iter:   7 00:52:00   -30.625725c  -5.00  -2.89
iter:   8 00:52:12   -30.625690c  -5.57  -3.26
iter:   9 00:52:24   -30.625689c  -6.81  -3.36
iter:  10 00:52:36   -30.625714c  -5.65  -3.41
iter:  11 00:52:47   -30.625707c  -6.61  -3.76
iter:  12 00:52:59   -30.625703c  -7.37  -3.78
iter:  13 00:53:11   -30.625699c  -7.67c -3.91
iter:  14 00:53:23   -30.625690c  -7.40c -3.97
iter:  15 00:53:35   -30.625686c  -7.50c -4.19c

Converged after 15 iterations.

Dipole moment: (0.000000, -0.000001, -1.562527) |e|*Ang

Energy contributions relative to reference atoms: (reference = -1616706.077045)

Kinetic:        +81.163577
Potential:      -72.664778
External:        +0.000000
XC:             -39.164796
Entropy (-ST):   -0.206275
Local:           +0.143448
SIC:             +0.000000
--------------------------
Free energy:    -30.728823
Extrapolated:   -30.625686

Showing only first 2 kpts
 Kpt  Band  Eigenvalues  Occupancy
  0    24      8.42316    1.70562
  0    25      9.37137    0.00088
  0    26     10.13228    0.00000
  0    27     10.24495    0.00000

  1    24      8.42316    1.70562
  1    25      9.37137    0.00088
  1    26     10.13228    0.00000
  1    27     10.24495    0.00000


Fermi level: 8.59884

No gap
No difference between direct/indirect transitions

Forces in eV/Ang:
  0 W     0.00000    0.00000    0.96326
  1 W    -0.00000    0.00000    0.96323
  2 Te    0.00000    0.00000   -0.52020
  3 Te   -0.00000    0.00000   -0.44000
  4 Te    0.00000    0.00000   -0.44051
  5 Te   -0.00000    0.00000   -0.52068

System changes: positions 

Initializing position-dependent things.

Density initialized from wave functions
                  
                  
                  
                  
                  
       Te         
                  
                  
                  
                  
                  
                  
         Te       
                  
                  
                  
       W          
                  
                  
                  
                  
                  
                  
         W        
                  
                  
         Te       
                  
                  
                  
                  
                  
                  
                  
                  
                  
       Te         
                  
                  
                  
                  

Positions:
   0 W      1.760500    1.016425    3.794115    ( 0.0000,  0.0000,  0.0000)
   1 W      1.760500   -1.016425   10.829115    ( 0.0000,  0.0000,  0.0000)
   2 Te     1.760500    1.016425   12.474740    ( 0.0000,  0.0000,  0.0000)
   3 Te     1.760500   -1.016425   -5.716860    ( 0.0000,  0.0000,  0.0000)
   4 Te     1.760500    1.016425    1.318140    ( 0.0000,  0.0000,  0.0000)
   5 Te     1.760500   -1.016425   19.509740    ( 0.0000,  0.0000,  0.0000)

Unit cell:
           periodic     x           y           z      points  spacing
  1. axis:    yes    1.760500   -3.049275    0.000000    20     0.1525
  2. axis:    yes    1.760500    3.049275    0.000000    20     0.1525
  3. axis:    yes    0.000000    0.000000   14.070000    80     0.1759

  Lengths:   3.521000   3.521000  14.070000
  Angles:   90.000000  90.000000 120.000000

Effective grid spacing dv^(1/3) = 0.1678

     iter     time        total  log10-change:
                         energy   eigst   dens
iter:   1 00:53:47   -30.697797   -2.38
iter:   2 00:53:59   -30.673227   -3.85  -1.96
iter:   3 00:54:11   -30.651854   -3.28  -2.11
iter:   4 00:54:23   -30.650989c  -4.30  -2.56
iter:   5 00:54:34   -30.649576c  -4.49  -2.64
iter:   6 00:54:46   -30.649333c  -5.04  -2.98
iter:   7 00:54:58   -30.649165c  -5.48  -3.06
iter:   8 00:55:11   -30.649139c  -5.84  -3.39
iter:   9 00:55:23   -30.649136c  -6.89  -3.53
iter:  10 00:55:34   -30.649121c  -6.58  -3.56
iter:  11 00:55:46   -30.649121c  -6.58  -3.78
iter:  12 00:55:58   -30.649114c  -7.28  -3.81
iter:  13 00:56:09   -30.649114c  -7.55c -4.03c

Converged after 13 iterations.

Dipole moment: (0.000000, 0.000003, -1.672323) |e|*Ang

Energy contributions relative to reference atoms: (reference = -1616706.077045)

Kinetic:        +79.211101
Potential:      -70.868274
External:        +0.000000
XC:             -39.034149
Entropy (-ST):   -0.214053
Local:           +0.149235
SIC:             +0.000000
--------------------------
Free energy:    -30.756140
Extrapolated:   -30.649114

Showing only first 2 kpts
 Kpt  Band  Eigenvalues  Occupancy
  0    24      8.46755    1.57461
  0    25      9.41855    0.00055
  0    26     10.13026    0.00000
  0    27     10.24229    0.00000

  1    24      8.46755    1.57462
  1    25      9.41855    0.00055
  1    26     10.13026    0.00000
  1    27     10.24229    0.00000


Fermi level: 8.59843

No gap
No difference between direct/indirect transitions

Forces in eV/Ang:
  0 W    -0.00000    0.00000    0.47491
  1 W     0.00000   -0.00000    0.47549
  2 Te   -0.00000   -0.00000   -0.40802
  3 Te    0.00000    0.00000   -0.06066
  4 Te    0.00000    0.00000   -0.06128
  5 Te   -0.00000   -0.00000   -0.40888

System changes: positions 

Initializing position-dependent things.

Density initialized from wave functions
                  
                  
                  
                  
                  
       Te         
                  
                  
                  
                  
                  
                  
         Te       
                  
                  
                  
       W          
                  
                  
                  
                  
                  
                  
         W        
                  
                  
         Te       
                  
                  
                  
                  
                  
                  
                  
                  
                  
       Te         
                  
                  
                  
                  

Positions:
   0 W      1.760500    1.016425    3.806179    ( 0.0000,  0.0000,  0.0000)
   1 W      1.760500   -1.016425   10.841179    ( 0.0000,  0.0000,  0.0000)
   2 Te     1.760500    1.016425   12.465848    ( 0.0000,  0.0000,  0.0000)
   3 Te     1.760500   -1.016425   -5.719919    ( 0.0000,  0.0000,  0.0000)
   4 Te     1.760500    1.016425    1.315081    ( 0.0000,  0.0000,  0.0000)
   5 Te     1.760500   -1.016425   19.500848    ( 0.0000,  0.0000,  0.0000)

Unit cell:
           periodic     x           y           z      points  spacing
  1. axis:    yes    1.760500   -3.049275    0.000000    20     0.1525
  2. axis:    yes    1.760500    3.049275    0.000000    20     0.1525
  3. axis:    yes    0.000000    0.000000   14.070000    80     0.1759

  Lengths:   3.521000   3.521000  14.070000
  Angles:   90.000000  90.000000 120.000000

Effective grid spacing dv^(1/3) = 0.1678

     iter     time        total  log10-change:
                         energy   eigst   dens
iter:   1 00:56:22   -30.695732   -2.50
iter:   2 00:56:34   -30.676477   -3.98  -2.02
iter:   3 00:56:46   -30.660719   -3.46  -2.18
iter:   4 00:56:57   -30.660399c  -4.34  -2.64
iter:   5 00:57:09   -30.658902c  -4.51  -2.65
iter:   6 00:57:20   -30.658729c  -5.17  -3.08
iter:   7 00:57:32   -30.658635c  -5.26  -3.14
iter:   8 00:57:43   -30.658629c  -6.04  -3.51
iter:   9 00:57:55   -30.658621c  -7.15  -3.58
iter:  10 00:58:07   -30.658583c  -6.46  -3.62
iter:  11 00:58:19   -30.658574c  -6.72  -3.88
iter:  12 00:58:31   -30.658571c  -7.38  -3.90
iter:  13 00:58:42   -30.658573c  -8.11c -4.15c

Converged after 13 iterations.

Dipole moment: (0.000000, -0.000012, -1.733908) |e|*Ang

Energy contributions relative to reference atoms: (reference = -1616706.077045)

Kinetic:        +79.900196
Potential:      -71.398798
External:        +0.000000
XC:             -39.195267
Entropy (-ST):   -0.218308
Local:           +0.144451
SIC:             +0.000000
--------------------------
Free energy:    -30.767727
Extrapolated:   -30.658573

Showing only first 2 kpts
 Kpt  Band  Eigenvalues  Occupancy
  0    24      8.51019    1.40332
  0    25      9.46596    0.00033
  0    26     10.14481    0.00000
  0    27     10.25655    0.00000

  1    24      8.51019    1.40333
  1    25      9.46596    0.00033
  1    26     10.14481    0.00000
  1    27     10.25655    0.00000


Fermi level: 8.59571

No gap
No difference between direct/indirect transitions

Forces in eV/Ang:
  0 W     0.00000    0.00000    0.07651
  1 W     0.00000   -0.00000    0.07739
  2 Te   -0.00000    0.00000   -0.16002
  3 Te    0.00000   -0.00000    0.09341
  4 Te    0.00000    0.00000    0.09304
  5 Te    0.00000   -0.00000   -0.16083

System changes: positions 

Initializing position-dependent things.

Density initialized from wave functions
                  
                  
                  
                  
                  
       Te         
                  
                  
                  
                  
                  
                  
         Te       
                  
                  
                  
       W          
                  
                  
                  
                  
                  
                  
         W        
                  
                  
         Te       
                  
                  
                  
                  
                  
                  
                  
                  
                  
       Te         
                  
                  
                  
                  

Positions:
   0 W      1.760500    1.016425    3.809064    ( 0.0000,  0.0000,  0.0000)
   1 W      1.760500   -1.016425   10.844064    ( 0.0000,  0.0000,  0.0000)
   2 Te     1.760500    1.016425   12.460465    ( 0.0000,  0.0000,  0.0000)
   3 Te     1.760500   -1.016425   -5.717232    ( 0.0000,  0.0000,  0.0000)
   4 Te     1.760500    1.016425    1.317768    ( 0.0000,  0.0000,  0.0000)
   5 Te     1.760500   -1.016425   19.495465    ( 0.0000,  0.0000,  0.0000)

Unit cell:
           periodic     x           y           z      points  spacing
  1. axis:    yes    1.760500   -3.049275    0.000000    20     0.1525
  2. axis:    yes    1.760500    3.049275    0.000000    20     0.1525
  3. axis:    yes    0.000000    0.000000   14.070000    80     0.1759

  Lengths:   3.521000   3.521000  14.070000
  Angles:   90.000000  90.000000 120.000000

Effective grid spacing dv^(1/3) = 0.1678

     iter     time        total  log10-change:
                         energy   eigst   dens
iter:   1 00:58:55   -30.662638   -3.53
iter:   2 00:59:07   -30.661317   -5.04  -2.62
iter:   3 00:59:19   -30.660261c  -4.75  -2.80
iter:   4 00:59:31   -30.660192c  -5.31  -3.20
iter:   5 00:59:42   -30.660106c  -5.80  -3.23
iter:   6 00:59:54   -30.660088c  -6.39  -3.53
iter:   7 01:00:06   -30.660086c  -6.52  -3.60
iter:   8 01:00:18   -30.660093c  -6.39  -3.80
iter:   9 01:00:30   -30.660094c  -7.69c -4.08c

Converged after 9 iterations.

Dipole moment: (0.000000, -0.000006, -1.729158) |e|*Ang

Energy contributions relative to reference atoms: (reference = -1616706.077045)

Kinetic:        +81.159607
Potential:      -72.476658
External:        +0.000000
XC:             -39.355463
Entropy (-ST):   -0.218370
Local:           +0.121606
SIC:             +0.000000
--------------------------
Free energy:    -30.769279
Extrapolated:   -30.660094

Showing only first 2 kpts
 Kpt  Band  Eigenvalues  Occupancy
  0    24      8.52290    1.34003
  0    25      9.48023    0.00028
  0    26     10.15572    0.00000
  0    27     10.26742    0.00000

  1    24      8.52290    1.34003
  1    25      9.48023    0.00028
  1    26     10.15573    0.00000
  1    27     10.26742    0.00000


Fermi level: 8.59373

No gap
No difference between direct/indirect transitions

Forces in eV/Ang:
  0 W     0.00000    0.00000   -0.02358
  1 W    -0.00000    0.00000   -0.02301
  2 Te   -0.00000    0.00000   -0.02608
  3 Te    0.00000   -0.00000    0.03558
  4 Te    0.00000   -0.00000    0.03575
  5 Te   -0.00000    0.00000   -0.02621

Timing:                                      incl.     excl.
-------------------------------------------------------------------
Density initialized from wave functions:     5.805     5.790   0.3% |
 Symmetrize density:                         0.015     0.015   0.0% |
Forces:                                      6.319     6.319   0.3% |
Hamiltonian:                                 1.510     0.007   0.0% |
 Atomic:                                     1.043     0.005   0.0% |
  XC Correction:                             1.038     1.038   0.1% |
 Calculate atomic Hamiltonians:              0.089     0.089   0.0% |
 Communicate:                                0.000     0.000   0.0% |
 Initialize Hamiltonian:                     0.000     0.000   0.0% |
 Poisson:                                    0.005     0.005   0.0% |
 XC 3D grid:                                 0.367     0.367   0.0% |
LCAO initialization:                         9.278     0.050   0.0% |
 LCAO eigensolver:                           3.492     0.002   0.0% |
  Calculate projections:                     0.005     0.005   0.0% |
  DenseAtomicCorrection:                     0.013     0.013   0.0% |
  Distribute overlap matrix:                 0.001     0.001   0.0% |
  Orbital Layouts:                           1.868     1.868   0.1% |
  Potential matrix:                          0.214     0.214   0.0% |
  Sum over cells:                            1.389     1.389   0.1% |
 LCAO to grid:                               5.357     5.357   0.3% |
 Set positions (LCAO WFS):                   0.379     0.047   0.0% |
  Basic WFS set positions:                   0.000     0.000   0.0% |
  Basis functions set positions:             0.000     0.000   0.0% |
  P tci:                                     0.223     0.223   0.0% |
  ST tci:                                    0.105     0.105   0.0% |
  mktci:                                     0.004     0.004   0.0% |
PWDescriptor:                                0.037     0.037   0.0% |
Redistribute:                                0.047     0.047   0.0% |
SCF-cycle:                                1691.061     2.027   0.1% |
 Davidson:                                1551.753   184.641   9.3% |---|
  Apply H:                                 289.062   285.206  14.4% |-----|
   HMM T:                                    3.856     3.856   0.2% |
  Subspace diag:                           329.487     0.550   0.0% |
   calc_h_matrix:                          304.781    13.713   0.7% |
    Apply H:                               291.069   286.928  14.4% |-----|
     HMM T:                                  4.141     4.141   0.2% |
   diagonalize:                              2.886     2.886   0.1% |
   rotate_psi:                              21.271    21.271   1.1% |
  calc. matrices:                          630.957    74.832   3.8% |-|
   Apply H:                                556.124   548.152  27.6% |----------|
    HMM T:                                   7.972     7.972   0.4% |
  diagonalize:                              77.901    77.901   3.9% |-|
  rotate_psi:                               39.706    39.706   2.0% ||
 Density:                                  110.258     0.002   0.0% |
  Atomic density matrices:                   0.549     0.549   0.0% |
  Mix:                                      12.254    12.254   0.6% |
  Multipole moments:                         0.011     0.011   0.0% |
  Pseudo density:                           97.442    97.186   4.9% |-|
   Symmetrize density:                       0.256     0.256   0.0% |
 Hamiltonian:                               23.454     0.118   0.0% |
  Atomic:                                   15.521     0.075   0.0% |
   XC Correction:                           15.446    15.446   0.8% |
  Calculate atomic Hamiltonians:             1.402     1.402   0.1% |
  Communicate:                               0.001     0.001   0.0% |
  Poisson:                                   0.088     0.088   0.0% |
  XC 3D grid:                                6.324     6.324   0.3% |
 Orthonormalize:                             3.570     0.032   0.0% |
  calc_s_matrix:                             0.465     0.465   0.0% |
  inverse-cholesky:                          0.059     0.059   0.0% |
  projections:                               2.331     2.331   0.1% |
  rotate_psi_s:                              0.683     0.683   0.0% |
Set symmetry:                                0.004     0.004   0.0% |
Other:                                     271.728   271.728  13.7% |----|
-------------------------------------------------------------------
Total:                                              1985.789 100.0%

Memory usage: 784.86 MiB
Date: Mon Apr  7 01:04:59 2025
