
  ___ ___ ___ _ _ _  
 |   |   |_  | | | | 
 | | | | | . | | | | 
 |__ |  _|___|_____|  25.1.0
 |___|_|             

User:   georgios-vourvachakis@georgios-vourvachakis-82K2
Date:   Mon Apr  7 02:33:46 2025
Arch:   x86_64
Pid:    589600
CWD:    /home/georgios-vourvachakis/Desktop/DFT_codes
Python: 3.12.3
gpaw:   /home/georgios-vourvachakis/Desktop/DFT_codes/.venv/lib/python3.12/site-packages/gpaw
_gpaw:  /home/georgios-vourvachakis/Desktop/DFT_codes/.venv/lib/python3.12/site-packages/
        _gpaw.cpython-312-x86_64-linux-gnu.so
ase:    /home/georgios-vourvachakis/Desktop/DFT_codes/.venv/lib/python3.12/site-packages/ase (version 3.24.0)
numpy:  /home/georgios-vourvachakis/Desktop/DFT_codes/.venv/lib/python3.12/site-packages/numpy (version 2.2.3)
scipy:  /home/georgios-vourvachakis/Desktop/DFT_codes/.venv/lib/python3.12/site-packages/scipy (version 1.15.1)
libxc:  5.2.3
units:  Angstrom and eV
cores: 1
OpenMP: False
OMP_NUM_THREADS: 1

Input parameters:
  kpts: [10 10  2]
  mode: {ecut: 600.0,
         name: pw}
  xc: PBE

System changes: positions, numbers, cell, pbc, initial_charges, initial_magmoms 

Initialize ...

species:
  W:
    name: Tungsten
    id: 3ed563b7d19992259c4d7db283f2ff78
    Z: 74.0
    valence: 14
    core: 60
    charge: 0.0
    file: /home/georgios-vourvachakis/Desktop/DFT_codes/gpaw_datasets/gpaw-setups-0.9.20000/W.PBE.gz
    compensation charges: {type: gauss,
                           rc: 0.40,
                           lmax: 2}
    cutoffs: {filter: 2.36,
              core: 3.02}
    projectors:
      #              energy  rcut
      - 5s(2.00)   -78.830   1.344
      - 6s(2.00)    -5.697   1.344
      - 5p(6.00)   -43.233   1.355
      - 6p(0.00)    -1.367   1.355
      - 5d(4.00)    -4.494   1.228
      -  d          22.717   1.228
  
    # Using partial waves for W as LCAO basis

  Te:
    name: Tellurium
    id: e44b9ef4772d7e5a1c6a47e6d6496588
    Z: 52.0
    valence: 6
    core: 46
    charge: 0.0
    file: /home/georgios-vourvachakis/Desktop/DFT_codes/gpaw_datasets/gpaw-setups-0.9.20000/Te.PBE.gz
    compensation charges: {type: gauss,
                           rc: 0.36,
                           lmax: 2}
    cutoffs: {filter: 2.09,
              core: 3.17}
    projectors:
      #              energy  rcut
      - 5s(2.00)   -15.089   1.180
      - 5p(4.00)    -5.955   1.196
      -  s          12.123   1.180
      -  p          21.256   1.196
      -  d           0.000   1.238
  
    # Using partial waves for Te as LCAO basis

Reference energy: -1616706.077045  # eV

Spin-paired calculation

Convergence criteria:
 Maximum [total energy] change in last 3 cyles: 0.0005 eV / valence electron
 Maximum integral of absolute [dens]ity change: 0.0001 electrons / valence electron
 Maximum integral of absolute [eigenst]ate change: 4e-08 eV^2 / valence electron
 Maximum number of scf [iter]ations: 333
 (Square brackets indicate name in SCF output, whereas a 'c' in
 the SCF output indicates the quantity has converged.)

Symmetries present (total): 6

  ( 1  1  0)  ( 1  0  0)  ( 0  1  0)  ( 0 -1  0)  (-1  0  0)  (-1 -1  0)
  ( 0 -1  0)  ( 0  1  0)  (-1 -1  0)  (-1  0  0)  ( 1  1  0)  ( 1  0  0)
  ( 0  0  1)  ( 0  0  1)  ( 0  0  1)  ( 0  0  1)  ( 0  0  1)  ( 0  0  1)
Note: your k-points are not as symmetric as your crystal!

200 k-points: 10 x 10 x 2 Monkhorst-Pack grid
55 k-points in the irreducible part of the Brillouin zone
       k-points in crystal coordinates                weights
   0:     0.05000000   -0.05000000   -0.25000000          2/200
   1:     0.05000000   -0.05000000    0.25000000          2/200
   2:     0.05000000    0.05000000    0.25000000          4/200
   3:     0.15000000   -0.15000000   -0.25000000          2/200
   4:     0.15000000   -0.15000000    0.25000000          2/200
   5:     0.15000000   -0.05000000   -0.25000000          4/200
   6:     0.15000000   -0.05000000    0.25000000          4/200
   7:     0.15000000    0.05000000   -0.25000000          4/200
   8:     0.15000000    0.05000000    0.25000000          4/200
   9:     0.15000000    0.15000000    0.25000000          4/200
          ...
  54:     0.45000000    0.45000000    0.25000000          4/200

Wave functions: Plane wave expansion
  Cutoff energy: 600.000 eV
  Number of coefficients (min, max): 5091, 5158
  Pulay-stress correction: 0.000000 eV/Ang^3 (de/decut=0.000000)
  Using Numpy's FFT
  ScaLapack parameters: grid=1x1, blocksize=None
  Wavefunction extrapolation:
    Improved wavefunction reuse through dual PAW basis 

Occupation numbers: Fermi-Dirac:
  width: 0.1000  # eV
 

Eigensolver
   Davidson(niter=2) 

Densities:
  Coarse grid: 21*21*80 grid
  Fine grid: 42*42*160 grid
  Total Charge: 0.000000 

Density mixing:
  Method: separate
  Backend: pulay
  Linear mixing parameter: 0.05
  old densities: 5
  Damping of long wavelength oscillations: 50 

Hamiltonian:
  XC and Coulomb potentials evaluated on a 42*42*160 grid
  Using the PBE Exchange-Correlation functional
  External potential:
    NoExternalPotential
 

XC parameters: PBE with 2 nearest neighbor stencil

Memory estimate:
  Process memory now: 796.70 MiB
  Calculator: 231.87 MiB
    Density: 16.48 MiB
      Arrays: 7.00 MiB
      Localized functions: 6.79 MiB
      Mixer: 2.69 MiB
    Hamiltonian: 4.74 MiB
      Arrays: 4.58 MiB
      XC: 0.00 MiB
      Poisson: 0.00 MiB
      vbar: 0.17 MiB
    Wavefunctions: 210.65 MiB
      Arrays psit_nG: 155.84 MiB
      Eigensolver: 3.43 MiB
      Projections: 2.66 MiB
      Projectors: 43.05 MiB
      PW-descriptor: 5.67 MiB

Total number of cores used: 1

Number of atoms: 6
Number of atomic orbitals: 42
Number of bands in calculation: 36
Number of valence electrons: 52
Bands to converge: occupied

... initialized

Initializing position-dependent things.

Density initialized from atomic densities
Creating initial wave functions:
  36 bands from LCAO basis set

                  
                  
                  
                  
                  
       Te         
                  
                  
                  
                  
                  
                  
         Te       
                  
                  
                  
       W          
                  
                  
                  
                  
                  
                  
         W        
                  
         Te       
                  
                  
                  
                  
                  
                  
                  
                  
                  
       Te         
                  
                  
                  
                  

Positions:
   0 W      1.773000    1.023642    3.530000    ( 0.0000,  0.0000,  0.0000)
   1 W      1.773000   -1.023642   10.590000    ( 0.0000,  0.0000,  0.0000)
   2 Te     1.773000    1.023642   12.284400    ( 0.0000,  0.0000,  0.0000)
   3 Te     1.773000   -1.023642   -5.224400    ( 0.0000,  0.0000,  0.0000)
   4 Te     1.773000    1.023642    1.835600    ( 0.0000,  0.0000,  0.0000)
   5 Te     1.773000   -1.023642   19.344400    ( 0.0000,  0.0000,  0.0000)

Unit cell:
           periodic     x           y           z      points  spacing
  1. axis:    yes    1.773000   -3.070926    0.000000    21     0.1462
  2. axis:    yes    1.773000    3.070926    0.000000    21     0.1462
  3. axis:    yes    0.000000    0.000000   14.120000    80     0.1765

  Lengths:   3.546000   3.546000  14.120000
  Angles:   90.000000  90.000000 120.000000

Effective grid spacing dv^(1/3) = 0.1633

     iter     time        total  log10-change:
                         energy   eigst   dens
iter:   1 02:34:09     1.592318
iter:   2 02:34:22     3.552732   -0.68  -0.96
iter:   3 02:34:35     4.790271   -1.24  -1.11
iter:   4 02:34:48     5.401737   -1.48  -1.23
iter:   5 02:35:02     5.696463   -1.63  -1.41
iter:   6 02:35:15     5.698942   -2.39  -1.84
iter:   7 02:35:28     5.707754c  -3.33  -1.90
iter:   8 02:35:41     5.697352c  -2.84  -2.00
iter:   9 02:35:54     5.700968c  -3.20  -2.26
iter:  10 02:36:07     5.699755c  -3.94  -2.59
iter:  11 02:36:21     5.701419c  -3.91  -2.61
iter:  12 02:36:34     5.701400c  -4.80  -3.02
iter:  13 02:36:47     5.701480c  -5.23  -3.11
iter:  14 02:37:00     5.701553c  -5.64  -3.21
iter:  15 02:37:13     5.701520c  -5.41  -3.28
iter:  16 02:37:27     5.701525c  -6.60  -3.68
iter:  17 02:37:40     5.701547c  -6.76  -3.72
iter:  18 02:37:53     5.701555c  -7.45c -3.83
iter:  19 02:38:06     5.701566c  -6.55  -3.87
iter:  20 02:38:20     5.701570c  -7.53c -4.15c

Converged after 20 iterations.

Dipole moment: (-0.000000, 0.000000, -0.182129) |e|*Ang

Energy contributions relative to reference atoms: (reference = -1616706.077045)

Kinetic:       +521.100874
Potential:     -439.812641
External:        +0.000000
XC:             -74.031120
Entropy (-ST):   -0.073360
Local:           -1.518864
SIC:             +0.000000
--------------------------
Free energy:     +5.664890
Extrapolated:    +5.701570

Showing only first 2 kpts
 Kpt  Band  Eigenvalues  Occupancy
  0    24      7.37280    2.00000
  0    25      8.47263    1.77306
  0    26     10.14559    0.00000
  0    27     10.26202    0.00000

  1    24      7.37280    2.00000
  1    25      8.47263    1.77306
  1    26     10.14559    0.00000
  1    27     10.26202    0.00000


Fermi level: 8.67821

No gap
No difference between direct/indirect transitions

Forces in eV/Ang:
  0 W     0.00000    0.00000   76.13659
  1 W    -0.00000    0.00000   76.13659
  2 Te    0.00000    0.00000    1.76835
  3 Te   -0.00000    0.00000  -77.90316
  4 Te    0.00000   -0.00000  -77.90316
  5 Te   -0.00000    0.00000    1.76835

System changes: positions 

Initializing position-dependent things.

Density initialized from wave functions
                  
                  
                  
                  
                  
       Te         
                  
                  
                  
                  
                  
                  
         Te       
                  
                  
                  
       W          
                  
                  
                  
                  
                  
                  
         W        
                  
         Te       
                  
                  
                  
                  
                  
                  
                  
                  
                  
       Te         
                  
                  
                  
                  

Positions:
   0 W      1.773000    1.023642    3.725465    ( 0.0000,  0.0000,  0.0000)
   1 W      1.773000   -1.023642   10.785465    ( 0.0000,  0.0000,  0.0000)
   2 Te     1.773000    1.023642   12.288940    ( 0.0000,  0.0000,  0.0000)
   3 Te     1.773000   -1.023642   -5.424400    ( 0.0000,  0.0000,  0.0000)
   4 Te     1.773000    1.023642    1.635600    ( 0.0000,  0.0000,  0.0000)
   5 Te     1.773000   -1.023642   19.348940    ( 0.0000,  0.0000,  0.0000)

Unit cell:
           periodic     x           y           z      points  spacing
  1. axis:    yes    1.773000   -3.070926    0.000000    21     0.1462
  2. axis:    yes    1.773000    3.070926    0.000000    21     0.1462
  3. axis:    yes    0.000000    0.000000   14.120000    80     0.1765

  Lengths:   3.546000   3.546000  14.120000
  Angles:   90.000000  90.000000 120.000000

Effective grid spacing dv^(1/3) = 0.1633

     iter     time        total  log10-change:
                         energy   eigst   dens
iter:   1 02:38:34   -46.323810   +0.46
iter:   2 02:38:48   -37.655602   -0.88  -0.70
iter:   3 02:39:01   -26.311636   -0.14  -0.81
iter:   4 02:39:14   -26.186822   -1.98  -1.41
iter:   5 02:39:28   -26.114539   -2.37  -1.52
iter:   6 02:39:41   -25.646274   -1.55  -1.59
iter:   7 02:39:54   -25.631806   -3.17  -1.96
iter:   8 02:40:07   -25.615207   -3.21  -2.01
iter:   9 02:40:21   -25.591880   -2.74  -2.12
iter:  10 02:40:34   -25.575634   -3.21  -2.15
iter:  11 02:40:48   -25.575023c  -3.78  -2.51
iter:  12 02:41:01   -25.574963c  -4.69  -2.61
iter:  13 02:41:14   -25.573967c  -3.84  -2.64
iter:  14 02:41:28   -25.574000c  -4.69  -2.95
iter:  15 02:41:41   -25.574202c  -5.26  -3.11
iter:  16 02:41:54   -25.574235c  -5.88  -3.15
iter:  17 02:42:08   -25.573794c  -5.40  -3.16
iter:  18 02:42:21   -25.573736c  -5.53  -3.35
iter:  19 02:42:35   -25.573779c  -6.07  -3.57
iter:  20 02:42:48   -25.573824c  -6.67  -3.74
iter:  21 02:43:01   -25.573810c  -7.01  -4.00c
iter:  22 02:43:15   -25.573798c  -7.28  -4.27c
iter:  23 02:43:29   -25.573799c  -8.60c -4.41c

Converged after 23 iterations.

Dipole moment: (0.000000, 0.000005, -0.592619) |e|*Ang

Energy contributions relative to reference atoms: (reference = -1616706.077045)

Kinetic:       +218.107471
Potential:     -190.943144
External:        +0.000000
XC:             -52.429087
Entropy (-ST):   -0.130668
Local:           -0.243705
SIC:             +0.000000
--------------------------
Free energy:    -25.639133
Extrapolated:   -25.573799

Showing only first 2 kpts
 Kpt  Band  Eigenvalues  Occupancy
  0    24      8.20314    1.90717
  0    25      9.17458    0.00248
  0    26     10.19303    0.00000
  0    27     10.28927    0.00000

  1    24      8.20314    1.90717
  1    25      9.17458    0.00248
  1    26     10.19303    0.00000
  1    27     10.28927    0.00000


Fermi level: 8.50539

No gap
No difference between direct/indirect transitions

Forces in eV/Ang:
  0 W     0.00000    0.00000   12.87426
  1 W    -0.00000    0.00000   12.87377
  2 Te    0.00000    0.00000    3.16878
  3 Te   -0.00000    0.00000  -16.04431
  4 Te    0.00000    0.00000  -16.04460
  5 Te   -0.00000   -0.00000    3.16911

System changes: positions 

Initializing position-dependent things.

Density initialized from wave functions
                  
                  
                  
                  
                  
       Te         
                  
                  
                  
                  
                  
                  
         Te       
                  
                  
                  
       W          
                  
                  
                  
                  
                  
                  
         W        
                  
         Te       
                  
                  
                  
                  
                  
                  
                  
                  
                  
       Te         
                  
                  
                  
                  

Positions:
   0 W      1.773000    1.023642    3.746676    ( 0.0000,  0.0000,  0.0000)
   1 W      1.773000   -1.023642   10.806676    ( 0.0000,  0.0000,  0.0000)
   2 Te     1.773000    1.023642   12.339947    ( 0.0000,  0.0000,  0.0000)
   3 Te     1.773000   -1.023642   -5.496649    ( 0.0000,  0.0000,  0.0000)
   4 Te     1.773000    1.023642    1.563351    ( 0.0000,  0.0000,  0.0000)
   5 Te     1.773000   -1.023642   19.399947    ( 0.0000,  0.0000,  0.0000)

Unit cell:
           periodic     x           y           z      points  spacing
  1. axis:    yes    1.773000   -3.070926    0.000000    21     0.1462
  2. axis:    yes    1.773000    3.070926    0.000000    21     0.1462
  3. axis:    yes    0.000000    0.000000   14.120000    80     0.1765

  Lengths:   3.546000   3.546000  14.120000
  Angles:   90.000000  90.000000 120.000000

Effective grid spacing dv^(1/3) = 0.1633

     iter     time        total  log10-change:
                         energy   eigst   dens
iter:   1 02:43:43   -28.389509   -1.32
iter:   2 02:43:56   -28.271704   -2.66  -1.61
iter:   3 02:44:09   -28.154591   -2.32  -1.74
iter:   4 02:44:23   -28.150416   -3.64  -2.17
iter:   5 02:44:36   -28.143329c  -3.91  -2.22
iter:   6 02:44:49   -28.139784c  -3.75  -2.35
iter:   7 02:45:03   -28.135290c  -3.75  -2.46
iter:   8 02:45:16   -28.135018c  -4.85  -2.89
iter:   9 02:45:30   -28.134991c  -4.79  -2.94
iter:  10 02:45:43   -28.134732c  -5.16  -3.12
iter:  11 02:45:56   -28.134795c  -6.06  -3.44
iter:  12 02:46:09   -28.134792c  -7.24  -3.48
iter:  13 02:46:23   -28.134734c  -6.21  -3.45
iter:  14 02:46:36   -28.134719c  -6.86  -3.71
iter:  15 02:46:49   -28.134708c  -6.81  -3.78
iter:  16 02:47:03   -28.134707c  -7.18  -3.89
iter:  17 02:47:16   -28.134714c  -7.13  -3.95
iter:  18 02:47:30   -28.134719c  -7.92c -4.13c

Converged after 18 iterations.

Dipole moment: (-0.000000, 0.000000, -0.742079) |e|*Ang

Energy contributions relative to reference atoms: (reference = -1616706.077045)

Kinetic:       +170.008368
Potential:     -150.091921
External:        +0.000000
XC:             -47.927120
Entropy (-ST):   -0.142463
Local:           -0.052815
SIC:             +0.000000
--------------------------
Free energy:    -28.205951
Extrapolated:   -28.134719

Showing only first 2 kpts
 Kpt  Band  Eigenvalues  Occupancy
  0    24      8.20640    1.82494
  0    25      9.17756    0.00126
  0    26     10.13221    0.00000
  0    27     10.23141    0.00000

  1    24      8.20640    1.82494
  1    25      9.17756    0.00126
  1    26     10.13221    0.00000
  1    27     10.23141    0.00000


Fermi level: 8.44082

No gap
No difference between direct/indirect transitions

Forces in eV/Ang:
  0 W     0.00000    0.00000    7.55695
  1 W    -0.00000   -0.00000    7.55671
  2 Te    0.00000   -0.00000    2.43030
  3 Te   -0.00000   -0.00000   -9.99342
  4 Te    0.00000    0.00000   -9.99360
  5 Te    0.00000   -0.00000    2.43032

System changes: positions 

Initializing position-dependent things.

Density initialized from wave functions
                  
                  
                  
                  
                  
       Te         
                  
                  
                  
                  
                  
                  
                  
         Te       
                  
                  
       W          
                  
                  
                  
                  
                  
                  
         W        
                  
                  
         Te       
                  
                  
                  
                  
                  
                  
                  
                  
                  
       Te         
                  
                  
                  
                  

Positions:
   0 W      1.773000    1.023642    3.772507    ( 0.0000,  0.0000,  0.0000)
   1 W      1.773000   -1.023642   10.832507    ( 0.0000,  0.0000,  0.0000)
   2 Te     1.773000    1.023642   12.444670    ( 0.0000,  0.0000,  0.0000)
   3 Te     1.773000   -1.023642   -5.627468    ( 0.0000,  0.0000,  0.0000)
   4 Te     1.773000    1.023642    1.432532    ( 0.0000,  0.0000,  0.0000)
   5 Te     1.773000   -1.023642   19.504670    ( 0.0000,  0.0000,  0.0000)

Unit cell:
           periodic     x           y           z      points  spacing
  1. axis:    yes    1.773000   -3.070926    0.000000    21     0.1462
  2. axis:    yes    1.773000    3.070926    0.000000    21     0.1462
  3. axis:    yes    0.000000    0.000000   14.120000    80     0.1765

  Lengths:   3.546000   3.546000  14.120000
  Angles:   90.000000  90.000000 120.000000

Effective grid spacing dv^(1/3) = 0.1633

     iter     time        total  log10-change:
                         energy   eigst   dens
iter:   1 02:47:44   -30.790641   -0.95
iter:   2 02:47:57   -30.601015   -2.38  -1.48
iter:   3 02:48:10   -30.396296   -2.12  -1.61
iter:   4 02:48:24   -30.389645   -3.32  -1.99
iter:   5 02:48:37   -30.374105c  -3.69  -2.02
iter:   6 02:48:51   -30.366025c  -3.43  -2.15
iter:   7 02:49:04   -30.357383c  -3.37  -2.27
iter:   8 02:49:17   -30.357172c  -4.50  -2.69
iter:   9 02:49:31   -30.356823c  -4.83  -2.74
iter:  10 02:49:44   -30.356688c  -5.03  -2.88
iter:  11 02:49:57   -30.356487c  -5.34  -2.98
iter:  12 02:50:10   -30.356524c  -5.88  -3.30
iter:  13 02:50:24   -30.356525c  -6.90  -3.32
iter:  14 02:50:37   -30.356451c  -6.07  -3.33
iter:  15 02:50:51   -30.356529c  -5.69  -3.53
iter:  16 02:51:04   -30.356461c  -5.91  -3.61
iter:  17 02:51:17   -30.356465c  -7.52c -3.92
iter:  18 02:51:31   -30.356455c  -7.40  -4.05c
iter:  19 02:51:44   -30.356453c  -7.96c -4.29c

Converged after 19 iterations.

Dipole moment: (-0.000000, 0.000024, -1.114821) |e|*Ang

Energy contributions relative to reference atoms: (reference = -1616706.077045)

Kinetic:       +106.050421
Potential:      -95.014781
External:        +0.000000
XC:             -41.429601
Entropy (-ST):   -0.167075
Local:           +0.121046
SIC:             +0.000000
--------------------------
Free energy:    -30.439990
Extrapolated:   -30.356453

Showing only first 2 kpts
 Kpt  Band  Eigenvalues  Occupancy
  0    24      8.17532    1.74757
  0    25      9.13535    0.00094
  0    26      9.98691    0.00000
  0    27     10.09277    0.00000

  1    24      8.17531    1.74757
  1    25      9.13535    0.00094
  1    26      9.98691    0.00000
  1    27     10.09278    0.00000


Fermi level: 8.36880

No gap
No difference between direct/indirect transitions

Forces in eV/Ang:
  0 W     0.00000    0.00000    2.69049
  1 W     0.00000   -0.00000    2.68814
  2 Te    0.00000    0.00000    0.64289
  3 Te    0.00000    0.00000   -3.33306
  4 Te    0.00000    0.00000   -3.33450
  5 Te   -0.00000   -0.00000    0.64331

System changes: positions 

Initializing position-dependent things.

Density initialized from wave functions
                  
                  
                  
                  
                  
       Te         
                  
                  
                  
                  
                  
                  
         Te       
                  
                  
                  
       W          
                  
                  
                  
                  
                  
                  
         W        
                  
                  
         Te       
                  
                  
                  
                  
                  
                  
                  
                  
                  
       Te         
                  
                  
                  
                  

Positions:
   0 W      1.773000    1.023642    3.787188    ( 0.0000,  0.0000,  0.0000)
   1 W      1.773000   -1.023642   10.847188    ( 0.0000,  0.0000,  0.0000)
   2 Te     1.773000    1.023642   12.492375    ( 0.0000,  0.0000,  0.0000)
   3 Te     1.773000   -1.023642   -5.689966    ( 0.0000,  0.0000,  0.0000)
   4 Te     1.773000    1.023642    1.370034    ( 0.0000,  0.0000,  0.0000)
   5 Te     1.773000   -1.023642   19.552375    ( 0.0000,  0.0000,  0.0000)

Unit cell:
           periodic     x           y           z      points  spacing
  1. axis:    yes    1.773000   -3.070926    0.000000    21     0.1462
  2. axis:    yes    1.773000    3.070926    0.000000    21     0.1462
  3. axis:    yes    0.000000    0.000000   14.120000    80     0.1765

  Lengths:   3.546000   3.546000  14.120000
  Angles:   90.000000  90.000000 120.000000

Effective grid spacing dv^(1/3) = 0.1633

     iter     time        total  log10-change:
                         energy   eigst   dens
iter:   1 02:51:58   -30.796270   -1.64
iter:   2 02:52:11   -30.755893   -3.10  -1.81
iter:   3 02:52:25   -30.734640   -3.13  -1.93
iter:   4 02:52:38   -30.708861   -3.39  -2.02
iter:   5 02:52:51   -30.706275   -4.14  -2.39
iter:   6 02:53:04   -30.704604c  -4.01  -2.49
iter:   7 02:53:18   -30.703054c  -4.26  -2.61
iter:   8 02:53:31   -30.702949c  -4.91  -2.97
iter:   9 02:53:44   -30.702931c  -5.93  -3.08
iter:  10 02:53:58   -30.702939c  -5.55  -3.17
iter:  11 02:54:11   -30.702949c  -5.78  -3.32
iter:  12 02:54:24   -30.702906c  -6.22  -3.59
iter:  13 02:54:38   -30.702923c  -6.87  -3.67
iter:  14 02:54:51   -30.702915c  -6.73  -3.74
iter:  15 02:55:04   -30.702901c  -7.24  -3.97
iter:  16 02:55:17   -30.702900c  -8.10c -4.06c

Converged after 16 iterations.

Dipole moment: (-0.000000, -0.000007, -1.376787) |e|*Ang

Energy contributions relative to reference atoms: (reference = -1616706.077045)

Kinetic:        +84.042874
Potential:      -75.740531
External:        +0.000000
XC:             -39.076244
Entropy (-ST):   -0.190181
Local:           +0.166091
SIC:             +0.000000
--------------------------
Free energy:    -30.797991
Extrapolated:   -30.702900

Showing only first 2 kpts
 Kpt  Band  Eigenvalues  Occupancy
  0    24      8.19318    1.68500
  0    25      9.14316    0.00080
  0    26      9.89765    0.00000
  0    27     10.00453    0.00000

  1    24      8.19319    1.68500
  1    25      9.14316    0.00080
  1    26      9.89766    0.00000
  1    27     10.00453    0.00000


Fermi level: 8.36088

No gap
No difference between direct/indirect transitions

Forces in eV/Ang:
  0 W     0.00000    0.00000    1.40552
  1 W    -0.00000   -0.00000    1.40703
  2 Te    0.00000    0.00000   -0.21523
  3 Te   -0.00000    0.00000   -1.19834
  4 Te    0.00000    0.00000   -1.19727
  5 Te    0.00000   -0.00000   -0.21539

System changes: positions 

Initializing position-dependent things.

Density initialized from wave functions
                  
                  
                  
                  
                  
       Te         
                  
                  
                  
                  
                  
                  
         Te       
                  
                  
                  
       W          
                  
                  
                  
                  
                  
                  
         W        
                  
                  
         Te       
                  
                  
                  
                  
                  
                  
                  
                  
                  
       Te         
                  
                  
                  
                  

Positions:
   0 W      1.773000    1.023642    3.799623    ( 0.0000,  0.0000,  0.0000)
   1 W      1.773000   -1.023642   10.859623    ( 0.0000,  0.0000,  0.0000)
   2 Te     1.773000    1.023642   12.506507    ( 0.0000,  0.0000,  0.0000)
   3 Te     1.773000   -1.023642   -5.716721    ( 0.0000,  0.0000,  0.0000)
   4 Te     1.773000    1.023642    1.343279    ( 0.0000,  0.0000,  0.0000)
   5 Te     1.773000   -1.023642   19.566507    ( 0.0000,  0.0000,  0.0000)

Unit cell:
           periodic     x           y           z      points  spacing
  1. axis:    yes    1.773000   -3.070926    0.000000    21     0.1462
  2. axis:    yes    1.773000    3.070926    0.000000    21     0.1462
  3. axis:    yes    0.000000    0.000000   14.120000    80     0.1765

  Lengths:   3.546000   3.546000  14.120000
  Angles:   90.000000  90.000000 120.000000

Effective grid spacing dv^(1/3) = 0.1633

     iter     time        total  log10-change:
                         energy   eigst   dens
iter:   1 02:55:32   -30.804495   -2.23
iter:   2 02:55:45   -30.782608   -3.68  -1.96
iter:   3 02:55:58   -30.769891   -3.38  -2.09
iter:   4 02:56:11   -30.759554c  -3.89  -2.23
iter:   5 02:56:25   -30.758862c  -4.55  -2.69
iter:   6 02:56:39   -30.758445c  -4.70  -2.83
iter:   7 02:56:52   -30.758097c  -5.12  -2.92
iter:   8 02:57:05   -30.758018c  -5.42  -3.22
iter:   9 02:57:18   -30.758022c  -6.70  -3.38
iter:  10 02:57:32   -30.758042c  -6.04  -3.42
iter:  11 02:57:45   -30.758052c  -6.27  -3.58
iter:  12 02:57:58   -30.758039c  -7.27  -3.81
iter:  13 02:58:12   -30.758033c  -7.63c -3.89
iter:  14 02:58:25   -30.758030c  -7.24  -3.93
iter:  15 02:58:38   -30.758025c  -7.81c -4.38c

Converged after 15 iterations.

Dipole moment: (-0.000000, 0.000007, -1.532920) |e|*Ang

Energy contributions relative to reference atoms: (reference = -1616706.077045)

Kinetic:        +76.745198
Potential:      -69.243224
External:        +0.000000
XC:             -38.324742
Entropy (-ST):   -0.203287
Local:           +0.166386
SIC:             +0.000000
--------------------------
Free energy:    -30.859669
Extrapolated:   -30.758025

Showing only first 2 kpts
 Kpt  Band  Eigenvalues  Occupancy
  0    24      8.22727    1.58625
  0    25      9.17456    0.00059
  0    26      9.86407    0.00000
  0    27      9.97040    0.00000

  1    24      8.22727    1.58625
  1    25      9.17456    0.00059
  1    26      9.86407    0.00000
  1    27      9.97040    0.00000


Fermi level: 8.36165

No gap
No difference between direct/indirect transitions

Forces in eV/Ang:
  0 W     0.00000    0.00000    0.83584
  1 W     0.00000    0.00000    0.83569
  2 Te    0.00000    0.00000   -0.42979
  3 Te    0.00000    0.00000   -0.41021
  4 Te    0.00000   -0.00000   -0.40999
  5 Te   -0.00000    0.00000   -0.42937

System changes: positions 

Initializing position-dependent things.

Density initialized from wave functions
                  
                  
                  
                  
                  
       Te         
                  
                  
                  
                  
                  
                  
         Te       
                  
                  
                  
       W          
                  
                  
                  
                  
                  
                  
         W        
                  
                  
         Te       
                  
                  
                  
                  
                  
                  
                  
                  
                  
       Te         
                  
                  
                  
                  

Positions:
   0 W      1.773000    1.023642    3.811032    ( 0.0000,  0.0000,  0.0000)
   1 W      1.773000   -1.023642   10.871032    ( 0.0000,  0.0000,  0.0000)
   2 Te     1.773000    1.023642   12.506193    ( 0.0000,  0.0000,  0.0000)
   3 Te     1.773000   -1.023642   -5.727959    ( 0.0000,  0.0000,  0.0000)
   4 Te     1.773000    1.023642    1.332041    ( 0.0000,  0.0000,  0.0000)
   5 Te     1.773000   -1.023642   19.566193    ( 0.0000,  0.0000,  0.0000)

Unit cell:
           periodic     x           y           z      points  spacing
  1. axis:    yes    1.773000   -3.070926    0.000000    21     0.1462
  2. axis:    yes    1.773000    3.070926    0.000000    21     0.1462
  3. axis:    yes    0.000000    0.000000   14.120000    80     0.1765

  Lengths:   3.546000   3.546000  14.120000
  Angles:   90.000000  90.000000 120.000000

Effective grid spacing dv^(1/3) = 0.1633

     iter     time        total  log10-change:
                         energy   eigst   dens
iter:   1 02:58:53   -30.808723   -2.54
iter:   2 02:59:06   -30.791329   -3.99  -2.03
iter:   3 02:59:19   -30.775628   -3.44  -2.19
iter:   4 02:59:33   -30.775293c  -4.25  -2.69
iter:   5 02:59:46   -30.774557c  -5.00  -2.76
iter:   6 02:59:59   -30.774360c  -5.23  -3.06
iter:   7 03:00:12   -30.774241c  -5.47  -3.13
iter:   8 03:00:26   -30.774239c  -6.46  -3.59
iter:   9 03:00:40   -30.774235c  -7.27  -3.60
iter:  10 03:00:53   -30.774229c  -6.40  -3.67
iter:  11 03:01:05   -30.774229c  -7.45c -4.13c

Converged after 11 iterations.

Dipole moment: (-0.000000, 0.000012, -1.627667) |e|*Ang

Energy contributions relative to reference atoms: (reference = -1616706.077045)

Kinetic:        +74.646032
Potential:      -67.324018
External:        +0.000000
XC:             -38.161281
Entropy (-ST):   -0.210617
Local:           +0.170346
SIC:             +0.000000
--------------------------
Free energy:    -30.879538
Extrapolated:   -30.774229

Showing only first 2 kpts
 Kpt  Band  Eigenvalues  Occupancy
  0    24      8.26430    1.44845
  0    25      9.21299    0.00040
  0    26      9.85968    0.00000
  0    27      9.96551    0.00000

  1    24      8.26431    1.44845
  1    25      9.21299    0.00040
  1    26      9.85968    0.00000
  1    27      9.96551    0.00000


Fermi level: 8.36086

No gap
No difference between direct/indirect transitions

Forces in eV/Ang:
  0 W     0.00000    0.00000    0.43496
  1 W    -0.00000    0.00000    0.43500
  2 Te    0.00000    0.00000   -0.35972
  3 Te   -0.00000   -0.00000   -0.06110
  4 Te    0.00000    0.00000   -0.06049
  5 Te   -0.00000    0.00000   -0.35919

System changes: positions 

Initializing position-dependent things.

Density initialized from wave functions
                  
                  
                  
                  
                  
       Te         
                  
                  
                  
                  
                  
                  
         Te       
                  
                  
                  
       W          
                  
                  
                  
                  
                  
                  
         W        
                  
                  
         Te       
                  
                  
                  
                  
                  
                  
                  
                  
                  
       Te         
                  
                  
                  
                  

Positions:
   0 W      1.773000    1.023642    3.821466    ( 0.0000,  0.0000,  0.0000)
   1 W      1.773000   -1.023642   10.881466    ( 0.0000,  0.0000,  0.0000)
   2 Te     1.773000    1.023642   12.499146    ( 0.0000,  0.0000,  0.0000)
   3 Te     1.773000   -1.023642   -5.731059    ( 0.0000,  0.0000,  0.0000)
   4 Te     1.773000    1.023642    1.328941    ( 0.0000,  0.0000,  0.0000)
   5 Te     1.773000   -1.023642   19.559146    ( 0.0000,  0.0000,  0.0000)

Unit cell:
           periodic     x           y           z      points  spacing
  1. axis:    yes    1.773000   -3.070926    0.000000    21     0.1462
  2. axis:    yes    1.773000    3.070926    0.000000    21     0.1462
  3. axis:    yes    0.000000    0.000000   14.120000    80     0.1765

  Lengths:   3.546000   3.546000  14.120000
  Angles:   90.000000  90.000000 120.000000

Effective grid spacing dv^(1/3) = 0.1633

     iter     time        total  log10-change:
                         energy   eigst   dens
iter:   1 03:01:18   -30.808871   -2.64
iter:   2 03:01:30   -30.794793   -4.10  -2.09
iter:   3 03:01:43   -30.785491c  -3.65  -2.25
iter:   4 03:01:55   -30.782559c  -4.46  -2.48
iter:   5 03:02:07   -30.781776c  -4.47  -2.79
iter:   6 03:02:19   -30.781632c  -5.24  -3.13
iter:   7 03:02:32   -30.781566c  -5.83  -3.20
iter:   8 03:02:44   -30.781537c  -5.62  -3.39
iter:   9 03:02:56   -30.781535c  -6.70  -3.65
iter:  10 03:03:08   -30.781522c  -7.25  -3.68
iter:  11 03:03:20   -30.781489c  -6.41  -3.79
iter:  12 03:03:32   -30.781488c  -7.44c -4.19c

Converged after 12 iterations.

Dipole moment: (0.000000, -0.000021, -1.677780) |e|*Ang

Energy contributions relative to reference atoms: (reference = -1616706.077045)

Kinetic:        +75.043903
Potential:      -67.606307
External:        +0.000000
XC:             -38.277503
Entropy (-ST):   -0.214809
Local:           +0.165823
SIC:             +0.000000
--------------------------
Free energy:    -30.888893
Extrapolated:   -30.781488

Showing only first 2 kpts
 Kpt  Band  Eigenvalues  Occupancy
  0    24      8.30199    1.27656
  0    25      9.25393    0.00026
  0    26      9.87070    0.00000
  0    27      9.97625    0.00000

  1    24      8.30199    1.27656
  1    25      9.25393    0.00026
  1    26      9.87070    0.00000
  1    27      9.97625    0.00000


Fermi level: 8.35878

No gap
No difference between direct/indirect transitions

Forces in eV/Ang:
  0 W     0.00000    0.00000    0.09989
  1 W    -0.00000   -0.00000    0.10210
  2 Te    0.00000    0.00000   -0.17830
  3 Te   -0.00000   -0.00000    0.08417
  4 Te    0.00000    0.00000    0.08586
  5 Te   -0.00000   -0.00000   -0.17795

System changes: positions 

Initializing position-dependent things.

Density initialized from wave functions
                  
                  
                  
                  
                  
       Te         
                  
                  
                  
                  
                  
                  
         Te       
                  
                  
                  
       W          
                  
                  
                  
                  
                  
                  
         W        
                  
                  
         Te       
                  
                  
                  
                  
                  
                  
                  
                  
                  
       Te         
                  
                  
                  
                  

Positions:
   0 W      1.773000    1.023642    3.825325    ( 0.0000,  0.0000,  0.0000)
   1 W      1.773000   -1.023642   10.885325    ( 0.0000,  0.0000,  0.0000)
   2 Te     1.773000    1.023642   12.492894    ( 0.0000,  0.0000,  0.0000)
   3 Te     1.773000   -1.023642   -5.728474    ( 0.0000,  0.0000,  0.0000)
   4 Te     1.773000    1.023642    1.331526    ( 0.0000,  0.0000,  0.0000)
   5 Te     1.773000   -1.023642   19.552894    ( 0.0000,  0.0000,  0.0000)

Unit cell:
           periodic     x           y           z      points  spacing
  1. axis:    yes    1.773000   -3.070926    0.000000    21     0.1462
  2. axis:    yes    1.773000    3.070926    0.000000    21     0.1462
  3. axis:    yes    0.000000    0.000000   14.120000    80     0.1765

  Lengths:   3.546000   3.546000  14.120000
  Angles:   90.000000  90.000000 120.000000

Effective grid spacing dv^(1/3) = 0.1633

     iter     time        total  log10-change:
                         energy   eigst   dens
iter:   1 03:03:45   -30.788453   -3.33
iter:   2 03:03:57   -30.786836   -4.47  -2.43
iter:   3 03:04:09   -30.785068c  -4.88  -2.50
iter:   4 03:04:22   -30.783427c  -4.63  -2.67
iter:   5 03:04:34   -30.783261c  -4.96  -3.15
iter:   6 03:04:46   -30.783241c  -5.95  -3.47
iter:   7 03:04:58   -30.783238c  -6.45  -3.53
iter:   8 03:05:11   -30.783244c  -6.18  -3.72
iter:   9 03:05:23   -30.783243c  -7.25  -3.98
iter:  10 03:05:35   -30.783241c  -8.18c -4.00c

Converged after 10 iterations.

Dipole moment: (0.000000, -0.000002, -1.676798) |e|*Ang

Energy contributions relative to reference atoms: (reference = -1616706.077045)

Kinetic:        +76.410199
Potential:      -68.769083
External:        +0.000000
XC:             -38.456750
Entropy (-ST):   -0.215184
Local:           +0.139985
SIC:             +0.000000
--------------------------
Free energy:    -30.890833
Extrapolated:   -30.783241

Showing only first 2 kpts
 Kpt  Band  Eigenvalues  Occupancy
  0    24      8.31955    1.18503
  0    25      9.27299    0.00021
  0    26      9.88231    0.00000
  0    27      9.98775    0.00000

  1    24      8.31955    1.18503
  1    25      9.27299    0.00021
  1    26      9.88231    0.00000
  1    27      9.98775    0.00000


Fermi level: 8.35699

No gap
No difference between direct/indirect transitions

Forces in eV/Ang:
  0 W     0.00000    0.00000   -0.02633
  1 W    -0.00000    0.00000   -0.02634
  2 Te    0.00000    0.00000   -0.02694
  3 Te    0.00000    0.00000    0.03659
  4 Te    0.00000    0.00000    0.03736
  5 Te   -0.00000    0.00000   -0.02629

Timing:                                      incl.     excl.
-------------------------------------------------------------------
Density initialized from wave functions:     6.434     6.418   0.3% |
 Symmetrize density:                         0.017     0.017   0.0% |
Forces:                                      6.114     6.114   0.3% |
Hamiltonian:                                 1.536     0.007   0.0% |
 Atomic:                                     1.019     0.005   0.0% |
  XC Correction:                             1.015     1.015   0.1% |
 Calculate atomic Hamiltonians:              0.093     0.093   0.0% |
 Communicate:                                0.000     0.000   0.0% |
 Initialize Hamiltonian:                     0.000     0.000   0.0% |
 Poisson:                                    0.005     0.005   0.0% |
 XC 3D grid:                                 0.412     0.412   0.0% |
LCAO initialization:                        10.225     0.053   0.0% |
 LCAO eigensolver:                           3.630     0.002   0.0% |
  Calculate projections:                     0.005     0.005   0.0% |
  DenseAtomicCorrection:                     0.012     0.012   0.0% |
  Distribute overlap matrix:                 0.001     0.001   0.0% |
  Orbital Layouts:                           1.835     1.835   0.1% |
  Potential matrix:                          0.219     0.219   0.0% |
  Sum over cells:                            1.557     1.557   0.1% |
 LCAO to grid:                               6.211     6.211   0.3% |
 Set positions (LCAO WFS):                   0.332     0.048   0.0% |
  Basic WFS set positions:                   0.000     0.000   0.0% |
  Basis functions set positions:             0.000     0.000   0.0% |
  P tci:                                     0.172     0.172   0.0% |
  ST tci:                                    0.107     0.107   0.0% |
  mktci:                                     0.004     0.004   0.0% |
PWDescriptor:                                0.042     0.042   0.0% |
Redistribute:                                0.046     0.046   0.0% |
SCF-cycle:                                1882.672     1.983   0.1% |
 Davidson:                                1730.099   198.923  10.4% |---|
  Apply H:                                 361.134   357.391  18.7% |------|
   HMM T:                                    3.744     3.744   0.2% |
  Subspace diag:                           403.477     0.443   0.0% |
   calc_h_matrix:                          376.674    14.847   0.8% |
    Apply H:                               361.827   357.822  18.7% |------|
     HMM T:                                  4.005     4.005   0.2% |
   diagonalize:                              3.042     3.042   0.2% |
   rotate_psi:                              23.317    23.317   1.2% |
  calc. matrices:                          679.902    73.189   3.8% |-|
   Apply H:                                606.712   599.736  31.4% |------------|
    HMM T:                                   6.977     6.977   0.4% |
  diagonalize:                              47.596    47.596   2.5% ||
  rotate_psi:                               39.067    39.067   2.0% ||
 Density:                                  121.814     0.002   0.0% |
  Atomic density matrices:                   0.543     0.543   0.0% |
  Mix:                                      11.094    11.094   0.6% |
  Multipole moments:                         0.011     0.011   0.0% |
  Pseudo density:                          110.164   109.882   5.8% |-|
   Symmetrize density:                       0.282     0.282   0.0% |
 Hamiltonian:                               25.234     0.137   0.0% |
  Atomic:                                   15.530     0.074   0.0% |
   XC Correction:                           15.456    15.456   0.8% |
  Calculate atomic Hamiltonians:             1.557     1.557   0.1% |
  Communicate:                               0.001     0.001   0.0% |
  Poisson:                                   0.089     0.089   0.0% |
  XC 3D grid:                                7.921     7.921   0.4% |
 Orthonormalize:                             3.542     0.029   0.0% |
  calc_s_matrix:                             0.486     0.486   0.0% |
  inverse-cholesky:                          0.058     0.058   0.0% |
  projections:                               2.263     2.263   0.1% |
  rotate_psi_s:                              0.707     0.707   0.0% |
Set symmetry:                                0.004     0.004   0.0% |
Other:                                       3.323     3.323   0.2% |
-------------------------------------------------------------------
Total:                                              1910.398 100.0%

Memory usage: 807.86 MiB
Date: Mon Apr  7 03:05:36 2025
