
  ___ ___ ___ _ _ _  
 |   |   |_  | | | | 
 | | | | | . | | | | 
 |__ |  _|___|_____|  25.1.0
 |___|_|             

User:   georgios-vourvachakis@georgios-vourvachakis-82K2
Date:   Mon Apr  7 00:01:12 2025
Arch:   x86_64
Pid:    589600
CWD:    /home/georgios-vourvachakis/Desktop/DFT_codes
Python: 3.12.3
gpaw:   /home/georgios-vourvachakis/Desktop/DFT_codes/.venv/lib/python3.12/site-packages/gpaw
_gpaw:  /home/georgios-vourvachakis/Desktop/DFT_codes/.venv/lib/python3.12/site-packages/
        _gpaw.cpython-312-x86_64-linux-gnu.so
ase:    /home/georgios-vourvachakis/Desktop/DFT_codes/.venv/lib/python3.12/site-packages/ase (version 3.24.0)
numpy:  /home/georgios-vourvachakis/Desktop/DFT_codes/.venv/lib/python3.12/site-packages/numpy (version 2.2.3)
scipy:  /home/georgios-vourvachakis/Desktop/DFT_codes/.venv/lib/python3.12/site-packages/scipy (version 1.15.1)
libxc:  5.2.3
units:  Angstrom and eV
cores: 1
OpenMP: False
OMP_NUM_THREADS: 1

Input parameters:
  kpts: [10 10  2]
  mode: {ecut: 600.0,
         name: pw}
  xc: PBE

System changes: positions, numbers, cell, pbc, initial_charges, initial_magmoms 

Initialize ...

species:
  W:
    name: Tungsten
    id: 3ed563b7d19992259c4d7db283f2ff78
    Z: 74.0
    valence: 14
    core: 60
    charge: 0.0
    file: /home/georgios-vourvachakis/Desktop/DFT_codes/gpaw_datasets/gpaw-setups-0.9.20000/W.PBE.gz
    compensation charges: {type: gauss,
                           rc: 0.40,
                           lmax: 2}
    cutoffs: {filter: 2.36,
              core: 3.02}
    projectors:
      #              energy  rcut
      - 5s(2.00)   -78.830   1.344
      - 6s(2.00)    -5.697   1.344
      - 5p(6.00)   -43.233   1.355
      - 6p(0.00)    -1.367   1.355
      - 5d(4.00)    -4.494   1.228
      -  d          22.717   1.228
  
    # Using partial waves for W as LCAO basis

  Te:
    name: Tellurium
    id: e44b9ef4772d7e5a1c6a47e6d6496588
    Z: 52.0
    valence: 6
    core: 46
    charge: 0.0
    file: /home/georgios-vourvachakis/Desktop/DFT_codes/gpaw_datasets/gpaw-setups-0.9.20000/Te.PBE.gz
    compensation charges: {type: gauss,
                           rc: 0.36,
                           lmax: 2}
    cutoffs: {filter: 2.09,
              core: 3.17}
    projectors:
      #              energy  rcut
      - 5s(2.00)   -15.089   1.180
      - 5p(4.00)    -5.955   1.196
      -  s          12.123   1.180
      -  p          21.256   1.196
      -  d           0.000   1.238
  
    # Using partial waves for Te as LCAO basis

Reference energy: -1616706.077045  # eV

Spin-paired calculation

Convergence criteria:
 Maximum [total energy] change in last 3 cyles: 0.0005 eV / valence electron
 Maximum integral of absolute [dens]ity change: 0.0001 electrons / valence electron
 Maximum integral of absolute [eigenst]ate change: 4e-08 eV^2 / valence electron
 Maximum number of scf [iter]ations: 333
 (Square brackets indicate name in SCF output, whereas a 'c' in
 the SCF output indicates the quantity has converged.)

Symmetries present (total): 6

  ( 1  1  0)  ( 1  0  0)  ( 0  1  0)  ( 0 -1  0)  (-1  0  0)  (-1 -1  0)
  ( 0 -1  0)  ( 0  1  0)  (-1 -1  0)  (-1  0  0)  ( 1  1  0)  ( 1  0  0)
  ( 0  0  1)  ( 0  0  1)  ( 0  0  1)  ( 0  0  1)  ( 0  0  1)  ( 0  0  1)
Note: your k-points are not as symmetric as your crystal!

200 k-points: 10 x 10 x 2 Monkhorst-Pack grid
55 k-points in the irreducible part of the Brillouin zone
       k-points in crystal coordinates                weights
   0:     0.05000000   -0.05000000   -0.25000000          2/200
   1:     0.05000000   -0.05000000    0.25000000          2/200
   2:     0.05000000    0.05000000    0.25000000          4/200
   3:     0.15000000   -0.15000000   -0.25000000          2/200
   4:     0.15000000   -0.15000000    0.25000000          2/200
   5:     0.15000000   -0.05000000   -0.25000000          4/200
   6:     0.15000000   -0.05000000    0.25000000          4/200
   7:     0.15000000    0.05000000   -0.25000000          4/200
   8:     0.15000000    0.05000000    0.25000000          4/200
   9:     0.15000000    0.15000000    0.25000000          4/200
          ...
  54:     0.45000000    0.45000000    0.25000000          4/200

Wave functions: Plane wave expansion
  Cutoff energy: 600.000 eV
  Number of coefficients (min, max): 4972, 5049
  Pulay-stress correction: 0.000000 eV/Ang^3 (de/decut=0.000000)
  Using Numpy's FFT
  ScaLapack parameters: grid=1x1, blocksize=None
  Wavefunction extrapolation:
    Improved wavefunction reuse through dual PAW basis 

Occupation numbers: Fermi-Dirac:
  width: 0.1000  # eV
 

Eigensolver
   Davidson(niter=2) 

Densities:
  Coarse grid: 20*20*80 grid
  Fine grid: 40*40*160 grid
  Total Charge: 0.000000 

Density mixing:
  Method: separate
  Backend: pulay
  Linear mixing parameter: 0.05
  old densities: 5
  Damping of long wavelength oscillations: 50 

Hamiltonian:
  XC and Coulomb potentials evaluated on a 40*40*160 grid
  Using the PBE Exchange-Correlation functional
  External potential:
    NoExternalPotential
 

XC parameters: PBE with 2 nearest neighbor stencil

Memory estimate:
  Process memory now: 766.73 MiB
  Calculator: 225.93 MiB
    Density: 15.45 MiB
      Arrays: 6.35 MiB
      Localized functions: 6.66 MiB
      Mixer: 2.44 MiB
    Hamiltonian: 4.31 MiB
      Arrays: 4.15 MiB
      XC: 0.00 MiB
      Poisson: 0.00 MiB
      vbar: 0.16 MiB
    Wavefunctions: 206.16 MiB
      Arrays psit_nG: 152.54 MiB
      Eigensolver: 3.36 MiB
      Projections: 2.66 MiB
      Projectors: 42.14 MiB
      PW-descriptor: 5.46 MiB

Total number of cores used: 1

Number of atoms: 6
Number of atomic orbitals: 42
Number of bands in calculation: 36
Number of valence electrons: 52
Bands to converge: occupied

... initialized

Initializing position-dependent things.

Density initialized from atomic densities
Creating initial wave functions:
  36 bands from LCAO basis set

                  
                  
                  
                  
                  
       Te         
                  
                  
                  
                  
                  
                  
         Te       
                  
                  
                  
       W          
                  
                  
                  
                  
                  
                  
         W        
                  
         Te       
                  
                  
                  
                  
                  
                  
                  
                  
                  
       Te         
                  
                  
                  
                  

Positions:
   0 W      1.760500    1.016425    3.505000    ( 0.0000,  0.0000,  0.0000)
   1 W      1.760500   -1.016425   10.515000    ( 0.0000,  0.0000,  0.0000)
   2 Te     1.760500    1.016425   12.197400    ( 0.0000,  0.0000,  0.0000)
   3 Te     1.760500   -1.016425   -5.187400    ( 0.0000,  0.0000,  0.0000)
   4 Te     1.760500    1.016425    1.822600    ( 0.0000,  0.0000,  0.0000)
   5 Te     1.760500   -1.016425   19.207400    ( 0.0000,  0.0000,  0.0000)

Unit cell:
           periodic     x           y           z      points  spacing
  1. axis:    yes    1.760500   -3.049275    0.000000    20     0.1525
  2. axis:    yes    1.760500    3.049275    0.000000    20     0.1525
  3. axis:    yes    0.000000    0.000000   14.020000    80     0.1752

  Lengths:   3.521000   3.521000  14.020000
  Angles:   90.000000  90.000000 120.000000

Effective grid spacing dv^(1/3) = 0.1676

     iter     time        total  log10-change:
                         energy   eigst   dens
iter:   1 00:01:35     3.411298
iter:   2 00:01:48     5.508961   -0.67  -0.95
iter:   3 00:02:01     6.834313   -1.22  -1.11
iter:   4 00:02:13     7.438112   -1.47  -1.23
iter:   5 00:02:26     7.742112   -1.62  -1.41
iter:   6 00:02:38     7.745212   -2.42  -1.84
iter:   7 00:02:51     7.752259c  -3.39  -1.90
iter:   8 00:03:05     7.742889c  -2.82  -1.98
iter:   9 00:03:18     7.745823c  -3.19  -2.26
iter:  10 00:03:32     7.744668c  -3.93  -2.59
iter:  11 00:03:45     7.745999c  -3.66  -2.62
iter:  12 00:03:57     7.746101c  -5.08  -2.99
iter:  13 00:04:10     7.746112c  -5.95  -3.20
iter:  14 00:04:23     7.746284c  -5.20  -3.24
iter:  15 00:04:36     7.746264c  -6.42  -3.62
iter:  16 00:04:49     7.746251c  -6.35  -3.73
iter:  17 00:05:02     7.746274c  -7.30  -3.82
iter:  18 00:05:15     7.746290c  -7.42c -3.90
iter:  19 00:05:28     7.746296c  -7.70c -3.98
iter:  20 00:05:41     7.746303c  -7.11  -4.07c
iter:  21 00:05:54     7.746298c  -8.11c -4.20c

Converged after 21 iterations.

Dipole moment: (0.000000, -0.000000, -0.183800) |e|*Ang

Energy contributions relative to reference atoms: (reference = -1616706.077045)

Kinetic:       +541.929644
Potential:     -456.402213
External:        +0.000000
XC:             -76.217102
Entropy (-ST):   -0.077322
Local:           -1.525370
SIC:             +0.000000
--------------------------
Free energy:     +7.707638
Extrapolated:    +7.746298

Showing only first 2 kpts
 Kpt  Band  Eigenvalues  Occupancy
  0    24      7.64577    2.00000
  0    25      8.76356    1.75769
  0    26     10.48461    0.00000
  0    27     10.60503    0.00000

  1    24      7.64577    2.00000
  1    25      8.76356    1.75769
  1    26     10.48461    0.00000
  1    27     10.60503    0.00000


Fermi level: 8.96171

No gap
No difference between direct/indirect transitions

Forces in eV/Ang:
  0 W     0.00000    0.00000   78.80415
  1 W     0.00000    0.00000   78.80415
  2 Te    0.00000    0.00000    2.10572
  3 Te    0.00000   -0.00000  -80.92309
  4 Te   -0.00000   -0.00000  -80.92309
  5 Te    0.00000    0.00000    2.10572

System changes: positions 

Initializing position-dependent things.

Density initialized from wave functions
                  
                  
                  
                  
                  
       Te         
                  
                  
                  
                  
                  
                  
         Te       
                  
                  
                  
       W          
                  
                  
                  
                  
                  
                  
         W        
                  
         Te       
                  
                  
                  
                  
                  
                  
                  
                  
                  
       Te         
                  
                  
                  
                  

Positions:
   0 W      1.760500    1.016425    3.699763    ( 0.0000,  0.0000,  0.0000)
   1 W      1.760500   -1.016425   10.709763    ( 0.0000,  0.0000,  0.0000)
   2 Te     1.760500    1.016425   12.202604    ( 0.0000,  0.0000,  0.0000)
   3 Te     1.760500   -1.016425   -5.387400    ( 0.0000,  0.0000,  0.0000)
   4 Te     1.760500    1.016425    1.622600    ( 0.0000,  0.0000,  0.0000)
   5 Te     1.760500   -1.016425   19.212604    ( 0.0000,  0.0000,  0.0000)

Unit cell:
           periodic     x           y           z      points  spacing
  1. axis:    yes    1.760500   -3.049275    0.000000    20     0.1525
  2. axis:    yes    1.760500    3.049275    0.000000    20     0.1525
  3. axis:    yes    0.000000    0.000000   14.020000    80     0.1752

  Lengths:   3.521000   3.521000  14.020000
  Angles:   90.000000  90.000000 120.000000

Effective grid spacing dv^(1/3) = 0.1676

     iter     time        total  log10-change:
                         energy   eigst   dens
iter:   1 00:06:08   -45.858763   +0.47
iter:   2 00:06:21   -37.118793   -0.87  -0.70
iter:   3 00:06:35   -25.640415   -0.12  -0.81
iter:   4 00:06:47   -25.496850   -1.99  -1.40
iter:   5 00:07:00   -25.434647   -2.36  -1.52
iter:   6 00:07:13   -24.948260   -1.53  -1.59
iter:   7 00:07:26   -24.932518   -3.15  -1.96
iter:   8 00:07:38   -24.914892   -3.19  -2.01
iter:   9 00:07:51   -24.892221   -2.71  -2.13
iter:  10 00:08:04   -24.875091   -3.16  -2.15
iter:  11 00:08:16   -24.874580c  -3.80  -2.52
iter:  12 00:08:29   -24.874505c  -4.77  -2.61
iter:  13 00:08:42   -24.873762c  -3.78  -2.64
iter:  14 00:08:55   -24.873644c  -4.71  -2.94
iter:  15 00:09:08   -24.873774c  -5.34  -3.13
iter:  16 00:09:20   -24.873822c  -5.82  -3.17
iter:  17 00:09:33   -24.873424c  -5.37  -3.19
iter:  18 00:09:46   -24.873350c  -5.59  -3.36
iter:  19 00:09:59   -24.873395c  -6.01  -3.57
iter:  20 00:10:12   -24.873443c  -6.65  -3.76
iter:  21 00:10:25   -24.873422c  -6.67  -3.90
iter:  22 00:10:38   -24.873414c  -7.31  -4.23c
iter:  23 00:10:51   -24.873414c  -8.31c -4.35c

Converged after 23 iterations.

Dipole moment: (0.000000, 0.000004, -0.602761) |e|*Ang

Energy contributions relative to reference atoms: (reference = -1616706.077045)

Kinetic:       +233.100323
Potential:     -203.270771
External:        +0.000000
XC:             -54.330504
Entropy (-ST):   -0.131194
Local:           -0.306865
SIC:             +0.000000
--------------------------
Free energy:    -24.939011
Extrapolated:   -24.873414

Showing only first 2 kpts
 Kpt  Band  Eigenvalues  Occupancy
  0    24      8.47224    1.90759
  0    25      9.47350    0.00185
  0    26     10.53910    0.00000
  0    27     10.63920    0.00000

  1    24      8.47224    1.90759
  1    25      9.47350    0.00185
  1    26     10.53910    0.00000
  1    27     10.63920    0.00000


Fermi level: 8.77498

No gap
No difference between direct/indirect transitions

Forces in eV/Ang:
  0 W    -0.00000    0.00000   13.44748
  1 W    -0.00000    0.00000   13.44703
  2 Te    0.00000    0.00000    3.61311
  3 Te    0.00000    0.00000  -17.06275
  4 Te    0.00000    0.00000  -17.06300
  5 Te   -0.00000   -0.00000    3.61338

System changes: positions 

Initializing position-dependent things.

Density initialized from wave functions
                  
                  
                  
                  
                  
       Te         
                  
                  
                  
                  
                  
                  
         Te       
                  
                  
                  
       W          
                  
                  
                  
                  
                  
                  
         W        
                  
         Te       
                  
                  
                  
                  
                  
                  
                  
                  
                  
       Te         
                  
                  
                  
                  

Positions:
   0 W      1.760500    1.016425    3.718587    ( 0.0000,  0.0000,  0.0000)
   1 W      1.760500   -1.016425   10.728587    ( 0.0000,  0.0000,  0.0000)
   2 Te     1.760500    1.016425   12.260624    ( 0.0000,  0.0000,  0.0000)
   3 Te     1.760500   -1.016425   -5.464249    ( 0.0000,  0.0000,  0.0000)
   4 Te     1.760500    1.016425    1.545751    ( 0.0000,  0.0000,  0.0000)
   5 Te     1.760500   -1.016425   19.270624    ( 0.0000,  0.0000,  0.0000)

Unit cell:
           periodic     x           y           z      points  spacing
  1. axis:    yes    1.760500   -3.049275    0.000000    20     0.1525
  2. axis:    yes    1.760500    3.049275    0.000000    20     0.1525
  3. axis:    yes    0.000000    0.000000   14.020000    80     0.1752

  Lengths:   3.521000   3.521000  14.020000
  Angles:   90.000000  90.000000 120.000000

Effective grid spacing dv^(1/3) = 0.1676

     iter     time        total  log10-change:
                         energy   eigst   dens
iter:   1 00:11:05   -27.943814   -1.29
iter:   2 00:11:18   -27.842780   -2.62  -1.64
iter:   3 00:11:31   -27.740197   -2.35  -1.77
iter:   4 00:11:44   -27.735956   -3.65  -2.16
iter:   5 00:11:57   -27.728664c  -3.93  -2.21
iter:   6 00:12:10   -27.724804c  -3.65  -2.34
iter:   7 00:12:22   -27.720508c  -3.76  -2.46
iter:   8 00:12:35   -27.720244c  -4.84  -2.88
iter:   9 00:12:48   -27.720199c  -4.70  -2.93
iter:  10 00:13:02   -27.719954c  -5.30  -3.12
iter:  11 00:13:15   -27.719983c  -6.36  -3.41
iter:  12 00:13:28   -27.719982c  -7.28  -3.47
iter:  13 00:13:42   -27.719963c  -5.86  -3.48
iter:  14 00:13:54   -27.719960c  -6.52  -3.75
iter:  15 00:14:06   -27.719941c  -7.13  -3.99
iter:  16 00:14:17   -27.719923c  -7.27  -4.12c
iter:  17 00:14:29   -27.719922c  -7.23  -4.25c
iter:  18 00:14:41   -27.719925c  -8.18c -4.38c

Converged after 18 iterations.

Dipole moment: (0.000000, -0.000012, -0.763911) |e|*Ang

Energy contributions relative to reference atoms: (reference = -1616706.077045)

Kinetic:       +180.464435
Potential:     -158.613430
External:        +0.000000
XC:             -49.406622
Entropy (-ST):   -0.141343
Local:           -0.093637
SIC:             +0.000000
--------------------------
Free energy:    -27.790597
Extrapolated:   -27.719925

Showing only first 2 kpts
 Kpt  Band  Eigenvalues  Occupancy
  0    24      8.45741    1.85462
  0    25      9.46002    0.00113
  0    26     10.46965    0.00000
  0    27     10.57346    0.00000

  1    24      8.45741    1.85462
  1    25      9.46002    0.00113
  1    26     10.46966    0.00000
  1    27     10.57346    0.00000


Fermi level: 8.71201

No gap
No difference between direct/indirect transitions

Forces in eV/Ang:
  0 W    -0.00000    0.00000    7.86418
  1 W     0.00000    0.00000    7.86568
  2 Te    0.00000   -0.00000    2.67439
  3 Te    0.00000   -0.00000  -10.54595
  4 Te    0.00000    0.00000  -10.54526
  5 Te   -0.00000   -0.00000    2.67384

System changes: positions 

Initializing position-dependent things.

Density initialized from wave functions
                  
                  
                  
                  
                  
       Te         
                  
                  
                  
                  
                  
                  
                  
         Te       
                  
                  
       W          
                  
                  
                  
                  
                  
                  
         W        
                  
                  
         Te       
                  
                  
                  
                  
                  
                  
                  
                  
                  
       Te         
                  
                  
                  
                  

Positions:
   0 W      1.760500    1.016425    3.740248    ( 0.0000,  0.0000,  0.0000)
   1 W      1.760500   -1.016425   10.750248    ( 0.0000,  0.0000,  0.0000)
   2 Te     1.760500    1.016425   12.374646    ( 0.0000,  0.0000,  0.0000)
   3 Te     1.760500   -1.016425   -5.600138    ( 0.0000,  0.0000,  0.0000)
   4 Te     1.760500    1.016425    1.409862    ( 0.0000,  0.0000,  0.0000)
   5 Te     1.760500   -1.016425   19.384646    ( 0.0000,  0.0000,  0.0000)

Unit cell:
           periodic     x           y           z      points  spacing
  1. axis:    yes    1.760500   -3.049275    0.000000    20     0.1525
  2. axis:    yes    1.760500    3.049275    0.000000    20     0.1525
  3. axis:    yes    0.000000    0.000000   14.020000    80     0.1752

  Lengths:   3.521000   3.521000  14.020000
  Angles:   90.000000  90.000000 120.000000

Effective grid spacing dv^(1/3) = 0.1676

     iter     time        total  log10-change:
                         energy   eigst   dens
iter:   1 00:14:54   -30.481924   -0.93
iter:   2 00:15:05   -30.335756   -2.36  -1.53
iter:   3 00:15:17   -30.179902   -2.21  -1.64
iter:   4 00:15:28   -30.160224   -3.29  -1.91
iter:   5 00:15:39   -30.143864   -3.62  -2.01
iter:   6 00:15:51   -30.134047   -3.18  -2.13
iter:   7 00:16:03   -30.126404c  -3.44  -2.28
iter:   8 00:16:15   -30.126143c  -4.39  -2.67
iter:   9 00:16:26   -30.125789c  -4.36  -2.74
iter:  10 00:16:38   -30.125600c  -5.17  -2.94
iter:  11 00:16:50   -30.125470c  -5.68  -3.06
iter:  12 00:17:02   -30.125470c  -6.79  -3.30
iter:  13 00:17:14   -30.125448c  -6.52  -3.31
iter:  14 00:17:26   -30.125390c  -5.93  -3.42
iter:  15 00:17:38   -30.125386c  -6.84  -3.73
iter:  16 00:17:49   -30.125405c  -6.89  -3.81
iter:  17 00:18:02   -30.125408c  -6.97  -3.92
iter:  18 00:18:13   -30.125404c  -7.50c -4.07c

Converged after 18 iterations.

Dipole moment: (0.000000, 0.000017, -1.156170) |e|*Ang

Energy contributions relative to reference atoms: (reference = -1616706.077045)

Kinetic:       +112.349960
Potential:      -99.968716
External:        +0.000000
XC:             -42.511752
Entropy (-ST):   -0.165486
Local:           +0.087847
SIC:             +0.000000
--------------------------
Free energy:    -30.208147
Extrapolated:   -30.125404

Showing only first 2 kpts
 Kpt  Band  Eigenvalues  Occupancy
  0    24      8.41877    1.82037
  0    25      9.40691    0.00104
  0    26     10.29945    0.00000
  0    27     10.41005    0.00000

  1    24      8.41877    1.82037
  1    25      9.40692    0.00104
  1    26     10.29945    0.00000
  1    27     10.41005    0.00000


Fermi level: 8.65036

No gap
No difference between direct/indirect transitions

Forces in eV/Ang:
  0 W     0.00000   -0.00000    2.95613
  1 W    -0.00000    0.00000    2.95348
  2 Te    0.00000    0.00000    0.57158
  3 Te    0.00000    0.00000   -3.52454
  4 Te    0.00000    0.00000   -3.52626
  5 Te    0.00000   -0.00000    0.57202

System changes: positions 

Initializing position-dependent things.

Density initialized from wave functions
                  
                  
                  
                  
                  
       Te         
                  
                  
                  
                  
                  
                  
         Te       
                  
                  
                  
       W          
                  
                  
                  
                  
                  
                  
         W        
                  
                  
         Te       
                  
                  
                  
                  
                  
                  
                  
                  
                  
       Te         
                  
                  
                  
                  

Positions:
   0 W      1.760500    1.016425    3.754529    ( 0.0000,  0.0000,  0.0000)
   1 W      1.760500   -1.016425   10.764529    ( 0.0000,  0.0000,  0.0000)
   2 Te     1.760500    1.016425   12.422625    ( 0.0000,  0.0000,  0.0000)
   3 Te     1.760500   -1.016425   -5.662425    ( 0.0000,  0.0000,  0.0000)
   4 Te     1.760500    1.016425    1.347575    ( 0.0000,  0.0000,  0.0000)
   5 Te     1.760500   -1.016425   19.432625    ( 0.0000,  0.0000,  0.0000)

Unit cell:
           periodic     x           y           z      points  spacing
  1. axis:    yes    1.760500   -3.049275    0.000000    20     0.1525
  2. axis:    yes    1.760500    3.049275    0.000000    20     0.1525
  3. axis:    yes    0.000000    0.000000   14.020000    80     0.1752

  Lengths:   3.521000   3.521000  14.020000
  Angles:   90.000000  90.000000 120.000000

Effective grid spacing dv^(1/3) = 0.1676

     iter     time        total  log10-change:
                         energy   eigst   dens
iter:   1 00:18:26   -30.570683   -1.64
iter:   2 00:18:38   -30.533954   -3.10  -1.82
iter:   3 00:18:50   -30.513873   -3.17  -1.94
iter:   4 00:19:01   -30.488997   -3.34  -2.04
iter:   5 00:19:14   -30.486639   -4.22  -2.39
iter:   6 00:19:25   -30.484952c  -4.04  -2.49
iter:   7 00:19:38   -30.483537c  -4.28  -2.62
iter:   8 00:19:49   -30.483443c  -4.91  -2.97
iter:   9 00:20:02   -30.483420c  -5.96  -3.08
iter:  10 00:20:13   -30.483420c  -5.54  -3.16
iter:  11 00:20:26   -30.483434c  -5.71  -3.32
iter:  12 00:20:38   -30.483399c  -6.50  -3.59
iter:  13 00:20:49   -30.483402c  -7.41c -3.67
iter:  14 00:21:01   -30.483405c  -7.64c -3.70
iter:  15 00:21:13   -30.483378c  -6.54  -3.75
iter:  16 00:21:25   -30.483383c  -7.42c -3.86
iter:  17 00:21:37   -30.483377c  -7.90c -3.96
iter:  18 00:21:49   -30.483391c  -6.78  -4.00c
iter:  19 00:22:00   -30.483390c  -8.29c -4.69c

Converged after 19 iterations.

Dipole moment: (0.000000, 0.000001, -1.427400) |e|*Ang

Energy contributions relative to reference atoms: (reference = -1616706.077045)

Kinetic:        +90.284736
Potential:      -80.632016
External:        +0.000000
XC:             -40.171209
Entropy (-ST):   -0.188966
Local:           +0.129583
SIC:             +0.000000
--------------------------
Free energy:    -30.577873
Extrapolated:   -30.483390

Showing only first 2 kpts
 Kpt  Band  Eigenvalues  Occupancy
  0    24      8.44814    1.76558
  0    25      9.42359    0.00087
  0    26     10.19931    0.00000
  0    27     10.31003    0.00000

  1    24      8.44814    1.76558
  1    25      9.42359    0.00087
  1    26     10.19931    0.00000
  1    27     10.31003    0.00000


Fermi level: 8.65005

No gap
No difference between direct/indirect transitions

Forces in eV/Ang:
  0 W     0.00000   -0.00000    1.65257
  1 W     0.00000   -0.00000    1.65283
  2 Te    0.00000    0.00000   -0.34437
  3 Te   -0.00000    0.00000   -1.30717
  4 Te    0.00000   -0.00000   -1.30707
  5 Te    0.00000    0.00000   -0.34447

System changes: positions 

Initializing position-dependent things.

Density initialized from wave functions
                  
                  
                  
                  
                  
       Te         
                  
                  
                  
                  
                  
                  
         Te       
                  
                  
                  
       W          
                  
                  
                  
                  
                  
                  
         W        
                  
                  
         Te       
                  
                  
                  
                  
                  
                  
                  
                  
                  
       Te         
                  
                  
                  
                  

Positions:
   0 W      1.760500    1.016425    3.768439    ( 0.0000,  0.0000,  0.0000)
   1 W      1.760500   -1.016425   10.778439    ( 0.0000,  0.0000,  0.0000)
   2 Te     1.760500    1.016425   12.435239    ( 0.0000,  0.0000,  0.0000)
   3 Te     1.760500   -1.016425   -5.688945    ( 0.0000,  0.0000,  0.0000)
   4 Te     1.760500    1.016425    1.321055    ( 0.0000,  0.0000,  0.0000)
   5 Te     1.760500   -1.016425   19.445239    ( 0.0000,  0.0000,  0.0000)

Unit cell:
           periodic     x           y           z      points  spacing
  1. axis:    yes    1.760500   -3.049275    0.000000    20     0.1525
  2. axis:    yes    1.760500    3.049275    0.000000    20     0.1525
  3. axis:    yes    0.000000    0.000000   14.020000    80     0.1752

  Lengths:   3.521000   3.521000  14.020000
  Angles:   90.000000  90.000000 120.000000

Effective grid spacing dv^(1/3) = 0.1676

     iter     time        total  log10-change:
                         energy   eigst   dens
iter:   1 00:22:14   -30.602401   -2.18
iter:   2 00:22:25   -30.576596   -3.65  -1.93
iter:   3 00:22:38   -30.550486   -3.13  -2.07
iter:   4 00:22:50   -30.550419   -4.25  -2.60
iter:   5 00:23:02   -30.549157c  -4.78  -2.62
iter:   6 00:23:14   -30.548721c  -4.56  -2.82
iter:   7 00:23:26   -30.548324c  -4.84  -2.89
iter:   8 00:23:38   -30.548325c  -5.91  -3.34
iter:   9 00:23:49   -30.548322c  -6.29  -3.36
iter:  10 00:24:01   -30.548347c  -5.99  -3.51
iter:  11 00:24:13   -30.548338c  -6.85  -3.70
iter:  12 00:24:25   -30.548338c  -7.54c -3.88
iter:  13 00:24:36   -30.548338c  -7.95c -3.89
iter:  14 00:24:48   -30.548332c  -6.99  -3.96
iter:  15 00:24:59   -30.548329c  -7.96c -4.43c

Converged after 15 iterations.

Dipole moment: (0.000000, 0.000012, -1.596058) |e|*Ang

Energy contributions relative to reference atoms: (reference = -1616706.077045)

Kinetic:        +83.104244
Potential:      -74.236716
External:        +0.000000
XC:             -39.456156
Entropy (-ST):   -0.201783
Local:           +0.141190
SIC:             +0.000000
--------------------------
Free energy:    -30.649220
Extrapolated:   -30.548329

Showing only first 2 kpts
 Kpt  Band  Eigenvalues  Occupancy
  0    24      8.49076    1.67094
  0    25      9.46346    0.00061
  0    26     10.16446    0.00000
  0    27     10.27402    0.00000

  1    24      8.49076    1.67094
  1    25      9.46346    0.00061
  1    26     10.16446    0.00000
  1    27     10.27402    0.00000


Fermi level: 8.65325

No gap
No difference between direct/indirect transitions

Forces in eV/Ang:
  0 W    -0.00000    0.00000    1.00313
  1 W     0.00000   -0.00000    1.00250
  2 Te    0.00000    0.00000   -0.54862
  3 Te    0.00000   -0.00000   -0.45862
  4 Te    0.00000   -0.00000   -0.45880
  5 Te    0.00000    0.00000   -0.54839

System changes: positions 

Initializing position-dependent things.

Density initialized from wave functions
                  
                  
                  
                  
                  
       Te         
                  
                  
                  
                  
                  
                  
         Te       
                  
                  
                  
       W          
                  
                  
                  
                  
                  
                  
         W        
                  
                  
         Te       
                  
                  
                  
                  
                  
                  
                  
                  
                  
       Te         
                  
                  
                  
                  

Positions:
   0 W      1.760500    1.016425    3.782903    ( 0.0000,  0.0000,  0.0000)
   1 W      1.760500   -1.016425   10.792903    ( 0.0000,  0.0000,  0.0000)
   2 Te     1.760500    1.016425   12.432802    ( 0.0000,  0.0000,  0.0000)
   3 Te     1.760500   -1.016425   -5.701075    ( 0.0000,  0.0000,  0.0000)
   4 Te     1.760500    1.016425    1.308925    ( 0.0000,  0.0000,  0.0000)
   5 Te     1.760500   -1.016425   19.442802    ( 0.0000,  0.0000,  0.0000)

Unit cell:
           periodic     x           y           z      points  spacing
  1. axis:    yes    1.760500   -3.049275    0.000000    20     0.1525
  2. axis:    yes    1.760500    3.049275    0.000000    20     0.1525
  3. axis:    yes    0.000000    0.000000   14.020000    80     0.1752

  Lengths:   3.521000   3.521000  14.020000
  Angles:   90.000000  90.000000 120.000000

Effective grid spacing dv^(1/3) = 0.1676

     iter     time        total  log10-change:
                         energy   eigst   dens
iter:   1 00:25:12   -30.626680   -2.34
iter:   2 00:25:23   -30.600350   -3.82  -1.94
iter:   3 00:25:35   -30.577431   -3.24  -2.09
iter:   4 00:25:46   -30.575841c  -4.27  -2.52
iter:   5 00:25:58   -30.574559c  -4.44  -2.66
iter:   6 00:26:10   -30.574260c  -4.93  -2.96
iter:   7 00:26:21   -30.574093c  -5.47  -3.04
iter:   8 00:26:33   -30.574066c  -5.80  -3.37
iter:   9 00:26:47   -30.574062c  -6.83  -3.52
iter:  10 00:27:00   -30.574044c  -6.55  -3.55
iter:  11 00:27:13   -30.574045c  -6.53  -3.76
iter:  12 00:27:24   -30.574035c  -7.28  -3.80
iter:  13 00:27:36   -30.574036c  -7.47c -4.03c

Converged after 13 iterations.

Dipole moment: (0.000000, -0.000001, -1.712747) |e|*Ang

Energy contributions relative to reference atoms: (reference = -1616706.077045)

Kinetic:        +81.047255
Potential:      -72.333403
External:        +0.000000
XC:             -39.325673
Entropy (-ST):   -0.209475
Local:           +0.142523
SIC:             +0.000000
--------------------------
Free energy:    -30.678773
Extrapolated:   -30.574036

Showing only first 2 kpts
 Kpt  Band  Eigenvalues  Occupancy
  0    24      8.53778    1.51946
  0    25      9.51290    0.00037
  0    26     10.16307    0.00000
  0    27     10.27178    0.00000

  1    24      8.53778    1.51946
  1    25      9.51290    0.00037
  1    26     10.16307    0.00000
  1    27     10.27178    0.00000


Fermi level: 8.65290

No gap
No difference between direct/indirect transitions

Forces in eV/Ang:
  0 W     0.00000    0.00000    0.48183
  1 W     0.00000   -0.00000    0.48255
  2 Te    0.00000    0.00000   -0.43146
  3 Te   -0.00000   -0.00000   -0.04587
  4 Te    0.00000    0.00000   -0.04650
  5 Te   -0.00000    0.00000   -0.43246

System changes: positions 

Initializing position-dependent things.

Density initialized from wave functions
                  
                  
                  
                  
                  
       Te         
                  
                  
                  
                  
                  
                  
         Te       
                  
                  
                  
       W          
                  
                  
                  
                  
                  
                  
         W        
                  
                  
         Te       
                  
                  
                  
                  
                  
                  
                  
                  
                  
       Te         
                  
                  
                  
                  

Positions:
   0 W      1.760500    1.016425    3.795213    ( 0.0000,  0.0000,  0.0000)
   1 W      1.760500   -1.016425   10.805213    ( 0.0000,  0.0000,  0.0000)
   2 Te     1.760500    1.016425   12.423100    ( 0.0000,  0.0000,  0.0000)
   3 Te     1.760500   -1.016425   -5.703614    ( 0.0000,  0.0000,  0.0000)
   4 Te     1.760500    1.016425    1.306386    ( 0.0000,  0.0000,  0.0000)
   5 Te     1.760500   -1.016425   19.433100    ( 0.0000,  0.0000,  0.0000)

Unit cell:
           periodic     x           y           z      points  spacing
  1. axis:    yes    1.760500   -3.049275    0.000000    20     0.1525
  2. axis:    yes    1.760500    3.049275    0.000000    20     0.1525
  3. axis:    yes    0.000000    0.000000   14.020000    80     0.1752

  Lengths:   3.521000   3.521000  14.020000
  Angles:   90.000000  90.000000 120.000000

Effective grid spacing dv^(1/3) = 0.1676

     iter     time        total  log10-change:
                         energy   eigst   dens
iter:   1 00:27:48   -30.623218   -2.48
iter:   2 00:28:00   -30.603324   -3.96  -2.01
iter:   3 00:28:12   -30.586824   -3.44  -2.18
iter:   4 00:28:24   -30.586304c  -4.35  -2.63
iter:   5 00:28:35   -30.584871c  -4.46  -2.67
iter:   6 00:28:47   -30.584666c  -5.10  -3.08
iter:   7 00:28:58   -30.584586c  -5.21  -3.14
iter:   8 00:29:10   -30.584582c  -6.08  -3.51
iter:   9 00:29:21   -30.584571c  -7.16  -3.57
iter:  10 00:29:33   -30.584531c  -6.38  -3.62
iter:  11 00:29:44   -30.584514c  -6.74  -3.81
iter:  12 00:29:56   -30.584516c  -7.44c -3.99
iter:  13 00:30:08   -30.584517c  -8.29c -4.16c

Converged after 13 iterations.

Dipole moment: (0.000000, -0.000012, -1.773881) |e|*Ang

Energy contributions relative to reference atoms: (reference = -1616706.077045)

Kinetic:        +81.930077
Potential:      -73.034216
External:        +0.000000
XC:             -39.511860
Entropy (-ST):   -0.213321
Local:           +0.138142
SIC:             +0.000000
--------------------------
Free energy:    -30.691177
Extrapolated:   -30.584517

Showing only first 2 kpts
 Kpt  Band  Eigenvalues  Occupancy
  0    24      8.58207    1.32721
  0    25      9.56140    0.00022
  0    26     10.17985    0.00000
  0    27     10.28820    0.00000

  1    24      8.58207    1.32721
  1    25      9.56140    0.00022
  1    26     10.17985    0.00000
  1    27     10.28820    0.00000


Fermi level: 8.65001

No gap
No difference between direct/indirect transitions

Forces in eV/Ang:
  0 W    -0.00000    0.00000    0.07187
  1 W    -0.00000    0.00000    0.07264
  2 Te    0.00000    0.00000   -0.15728
  3 Te   -0.00000    0.00000    0.10092
  4 Te    0.00000    0.00000    0.10069
  5 Te   -0.00000    0.00000   -0.15789

System changes: positions 

Initializing position-dependent things.

Density initialized from wave functions
                  
                  
                  
                  
                  
       Te         
                  
                  
                  
                  
                  
                  
         Te       
                  
                  
                  
       W          
                  
                  
                  
                  
                  
                  
         W        
                  
                  
         Te       
                  
                  
                  
                  
                  
                  
                  
                  
                  
       Te         
                  
                  
                  
                  

Positions:
   0 W      1.760500    1.016425    3.797962    ( 0.0000,  0.0000,  0.0000)
   1 W      1.760500   -1.016425   10.807962    ( 0.0000,  0.0000,  0.0000)
   2 Te     1.760500    1.016425   12.417810    ( 0.0000,  0.0000,  0.0000)
   3 Te     1.760500   -1.016425   -5.700785    ( 0.0000,  0.0000,  0.0000)
   4 Te     1.760500    1.016425    1.309215    ( 0.0000,  0.0000,  0.0000)
   5 Te     1.760500   -1.016425   19.427810    ( 0.0000,  0.0000,  0.0000)

Unit cell:
           periodic     x           y           z      points  spacing
  1. axis:    yes    1.760500   -3.049275    0.000000    20     0.1525
  2. axis:    yes    1.760500    3.049275    0.000000    20     0.1525
  3. axis:    yes    0.000000    0.000000   14.020000    80     0.1752

  Lengths:   3.521000   3.521000  14.020000
  Angles:   90.000000  90.000000 120.000000

Effective grid spacing dv^(1/3) = 0.1676

     iter     time        total  log10-change:
                         energy   eigst   dens
iter:   1 00:30:20   -30.588551   -3.55
iter:   2 00:30:32   -30.587292   -5.06  -2.64
iter:   3 00:30:44   -30.586281c  -4.79  -2.81
iter:   4 00:30:55   -30.586237c  -5.46  -3.20
iter:   5 00:31:07   -30.586122c  -5.62  -3.21
iter:   6 00:31:18   -30.586102c  -6.30  -3.54
iter:   7 00:31:30   -30.586109c  -6.34  -3.61
iter:   8 00:31:41   -30.586117c  -6.61  -3.90
iter:   9 00:31:53   -30.586117c  -7.93c -4.10c

Converged after 9 iterations.

Dipole moment: (0.000000, -0.000006, -1.767207) |e|*Ang

Energy contributions relative to reference atoms: (reference = -1616706.077045)

Kinetic:        +83.196506
Potential:      -74.120422
External:        +0.000000
XC:             -39.671375
Entropy (-ST):   -0.213257
Local:           +0.115802
SIC:             +0.000000
--------------------------
Free energy:    -30.692745
Extrapolated:   -30.586117

Showing only first 2 kpts
 Kpt  Band  Eigenvalues  Occupancy
  0    24      8.59443    1.26173
  0    25      9.57497    0.00019
  0    26     10.19095    0.00000
  0    27     10.29927    0.00000

  1    24      8.59443    1.26173
  1    25      9.57497    0.00019
  1    26     10.19096    0.00000
  1    27     10.29927    0.00000


Fermi level: 8.64802

No gap
No difference between direct/indirect transitions

Forces in eV/Ang:
  0 W     0.00000    0.00000   -0.02122
  1 W     0.00000    0.00000   -0.02036
  2 Te    0.00000    0.00000   -0.02849
  3 Te   -0.00000   -0.00000    0.03712
  4 Te    0.00000    0.00000    0.03721
  5 Te   -0.00000    0.00000   -0.02889

Timing:                                      incl.     excl.
-------------------------------------------------------------------
Density initialized from wave functions:     5.812     5.796   0.3% |
 Symmetrize density:                         0.015     0.015   0.0% |
Forces:                                      6.328     6.328   0.3% |
Hamiltonian:                                 1.553     0.007   0.0% |
 Atomic:                                     1.073     0.005   0.0% |
  XC Correction:                             1.068     1.068   0.1% |
 Calculate atomic Hamiltonians:              0.090     0.090   0.0% |
 Communicate:                                0.000     0.000   0.0% |
 Initialize Hamiltonian:                     0.000     0.000   0.0% |
 Poisson:                                    0.005     0.005   0.0% |
 XC 3D grid:                                 0.377     0.377   0.0% |
LCAO initialization:                        11.233     0.073   0.0% |
 LCAO eigensolver:                           4.607     0.003   0.0% |
  Calculate projections:                     0.006     0.006   0.0% |
  DenseAtomicCorrection:                     0.020     0.020   0.0% |
  Distribute overlap matrix:                 0.002     0.002   0.0% |
  Orbital Layouts:                           2.400     2.400   0.1% |
  Potential matrix:                          0.209     0.209   0.0% |
  Sum over cells:                            1.967     1.967   0.1% |
 LCAO to grid:                               6.190     6.190   0.3% |
 Set positions (LCAO WFS):                   0.363     0.048   0.0% |
  Basic WFS set positions:                   0.000     0.000   0.0% |
  Basis functions set positions:             0.000     0.000   0.0% |
  P tci:                                     0.195     0.195   0.0% |
  ST tci:                                    0.115     0.115   0.0% |
  mktci:                                     0.004     0.004   0.0% |
PWDescriptor:                                0.039     0.039   0.0% |
Redistribute:                                0.046     0.046   0.0% |
SCF-cycle:                                1813.489     2.147   0.1% |
 Davidson:                                1666.219   198.898   9.6% |---|
  Apply H:                                 314.041   310.062  14.9% |-----|
   HMM T:                                    3.979     3.979   0.2% |
  Subspace diag:                           358.188     0.562   0.0% |
   calc_h_matrix:                          331.016    15.206   0.7% |
    Apply H:                               315.811   311.493  15.0% |-----|
     HMM T:                                  4.318     4.318   0.2% |
   diagonalize:                              3.073     3.073   0.1% |
   rotate_psi:                              23.537    23.537   1.1% |
  calc. matrices:                          672.279    81.092   3.9% |-|
   Apply H:                                591.187   582.919  28.1% |----------|
    HMM T:                                   8.268     8.268   0.4% |
  diagonalize:                              80.057    80.057   3.9% |-|
  rotate_psi:                               42.756    42.756   2.1% ||
 Density:                                  116.664     0.003   0.0% |
  Atomic density matrices:                   0.567     0.567   0.0% |
  Mix:                                      13.120    13.120   0.6% |
  Multipole moments:                         0.012     0.012   0.0% |
  Pseudo density:                          102.963   102.695   5.0% |-|
   Symmetrize density:                       0.268     0.268   0.0% |
 Hamiltonian:                               24.833     0.130   0.0% |
  Atomic:                                   16.449     0.080   0.0% |
   XC Correction:                           16.369    16.369   0.8% |
  Calculate atomic Hamiltonians:             1.475     1.475   0.1% |
  Communicate:                               0.001     0.001   0.0% |
  Poisson:                                   0.108     0.108   0.0% |
  XC 3D grid:                                6.671     6.671   0.3% |
 Orthonormalize:                             3.625     0.033   0.0% |
  calc_s_matrix:                             0.475     0.475   0.0% |
  inverse-cholesky:                          0.061     0.061   0.0% |
  projections:                               2.329     2.329   0.1% |
  rotate_psi_s:                              0.727     0.727   0.0% |
Set symmetry:                                0.004     0.004   0.0% |
Other:                                     235.613   235.613  11.4% |----|
-------------------------------------------------------------------
Total:                                              2074.116 100.0%

Memory usage: 784.86 MiB
Date: Mon Apr  7 00:35:46 2025
