
  ___ ___ ___ _ _ _  
 |   |   |_  | | | | 
 | | | | | . | | | | 
 |__ |  _|___|_____|  25.1.0
 |___|_|             

User:   georgios-vourvachakis@georgios-vourvachakis-82K2
Date:   Sun Apr  6 23:30:38 2025
Arch:   x86_64
Pid:    589600
CWD:    /home/georgios-vourvachakis/Desktop/DFT_codes
Python: 3.12.3
gpaw:   /home/georgios-vourvachakis/Desktop/DFT_codes/.venv/lib/python3.12/site-packages/gpaw
_gpaw:  /home/georgios-vourvachakis/Desktop/DFT_codes/.venv/lib/python3.12/site-packages/
        _gpaw.cpython-312-x86_64-linux-gnu.so
ase:    /home/georgios-vourvachakis/Desktop/DFT_codes/.venv/lib/python3.12/site-packages/ase (version 3.24.0)
numpy:  /home/georgios-vourvachakis/Desktop/DFT_codes/.venv/lib/python3.12/site-packages/numpy (version 2.2.3)
scipy:  /home/georgios-vourvachakis/Desktop/DFT_codes/.venv/lib/python3.12/site-packages/scipy (version 1.15.1)
libxc:  5.2.3
units:  Angstrom and eV
cores: 1
OpenMP: False
OMP_NUM_THREADS: 1

Input parameters:
  kpts: [10 10  2]
  mode: {ecut: 600.0,
         name: pw}
  xc: PBE

System changes: positions, numbers, cell, pbc, initial_charges, initial_magmoms 

Initialize ...

species:
  W:
    name: Tungsten
    id: 3ed563b7d19992259c4d7db283f2ff78
    Z: 74.0
    valence: 14
    core: 60
    charge: 0.0
    file: /home/georgios-vourvachakis/Desktop/DFT_codes/gpaw_datasets/gpaw-setups-0.9.20000/W.PBE.gz
    compensation charges: {type: gauss,
                           rc: 0.40,
                           lmax: 2}
    cutoffs: {filter: 2.36,
              core: 3.02}
    projectors:
      #              energy  rcut
      - 5s(2.00)   -78.830   1.344
      - 6s(2.00)    -5.697   1.344
      - 5p(6.00)   -43.233   1.355
      - 6p(0.00)    -1.367   1.355
      - 5d(4.00)    -4.494   1.228
      -  d          22.717   1.228
  
    # Using partial waves for W as LCAO basis

  Te:
    name: Tellurium
    id: e44b9ef4772d7e5a1c6a47e6d6496588
    Z: 52.0
    valence: 6
    core: 46
    charge: 0.0
    file: /home/georgios-vourvachakis/Desktop/DFT_codes/gpaw_datasets/gpaw-setups-0.9.20000/Te.PBE.gz
    compensation charges: {type: gauss,
                           rc: 0.36,
                           lmax: 2}
    cutoffs: {filter: 2.09,
              core: 3.17}
    projectors:
      #              energy  rcut
      - 5s(2.00)   -15.089   1.180
      - 5p(4.00)    -5.955   1.196
      -  s          12.123   1.180
      -  p          21.256   1.196
      -  d           0.000   1.238
  
    # Using partial waves for Te as LCAO basis

Reference energy: -1616706.077045  # eV

Spin-paired calculation

Convergence criteria:
 Maximum [total energy] change in last 3 cyles: 0.0005 eV / valence electron
 Maximum integral of absolute [dens]ity change: 0.0001 electrons / valence electron
 Maximum integral of absolute [eigenst]ate change: 4e-08 eV^2 / valence electron
 Maximum number of scf [iter]ations: 333
 (Square brackets indicate name in SCF output, whereas a 'c' in
 the SCF output indicates the quantity has converged.)

Symmetries present (total): 6

  ( 1  1  0)  ( 1  0  0)  ( 0  1  0)  ( 0 -1  0)  (-1  0  0)  (-1 -1  0)
  ( 0 -1  0)  ( 0  1  0)  (-1 -1  0)  (-1  0  0)  ( 1  1  0)  ( 1  0  0)
  ( 0  0  1)  ( 0  0  1)  ( 0  0  1)  ( 0  0  1)  ( 0  0  1)  ( 0  0  1)
Note: your k-points are not as symmetric as your crystal!

200 k-points: 10 x 10 x 2 Monkhorst-Pack grid
55 k-points in the irreducible part of the Brillouin zone
       k-points in crystal coordinates                weights
   0:     0.05000000   -0.05000000   -0.25000000          2/200
   1:     0.05000000   -0.05000000    0.25000000          2/200
   2:     0.05000000    0.05000000    0.25000000          4/200
   3:     0.15000000   -0.15000000   -0.25000000          2/200
   4:     0.15000000   -0.15000000    0.25000000          2/200
   5:     0.15000000   -0.05000000   -0.25000000          4/200
   6:     0.15000000   -0.05000000    0.25000000          4/200
   7:     0.15000000    0.05000000   -0.25000000          4/200
   8:     0.15000000    0.05000000    0.25000000          4/200
   9:     0.15000000    0.15000000    0.25000000          4/200
          ...
  54:     0.45000000    0.45000000    0.25000000          4/200

Wave functions: Plane wave expansion
  Cutoff energy: 600.000 eV
  Number of coefficients (min, max): 4928, 5011
  Pulay-stress correction: 0.000000 eV/Ang^3 (de/decut=0.000000)
  Using Numpy's FFT
  ScaLapack parameters: grid=1x1, blocksize=None
  Wavefunction extrapolation:
    Improved wavefunction reuse through dual PAW basis 

Occupation numbers: Fermi-Dirac:
  width: 0.1000  # eV
 

Eigensolver
   Davidson(niter=2) 

Densities:
  Coarse grid: 20*20*80 grid
  Fine grid: 40*40*160 grid
  Total Charge: 0.000000 

Density mixing:
  Method: separate
  Backend: pulay
  Linear mixing parameter: 0.05
  old densities: 5
  Damping of long wavelength oscillations: 50 

Hamiltonian:
  XC and Coulomb potentials evaluated on a 40*40*160 grid
  Using the PBE Exchange-Correlation functional
  External potential:
    NoExternalPotential
 

XC parameters: PBE with 2 nearest neighbor stencil

Memory estimate:
  Process memory now: 762.39 MiB
  Calculator: 224.37 MiB
    Density: 15.41 MiB
      Arrays: 6.35 MiB
      Localized functions: 6.62 MiB
      Mixer: 2.44 MiB
    Hamiltonian: 4.31 MiB
      Arrays: 4.15 MiB
      XC: 0.00 MiB
      Poisson: 0.00 MiB
      vbar: 0.16 MiB
    Wavefunctions: 204.65 MiB
      Arrays psit_nG: 151.39 MiB
      Eigensolver: 3.33 MiB
      Projections: 2.66 MiB
      Projectors: 41.84 MiB
      PW-descriptor: 5.43 MiB

Total number of cores used: 1

Number of atoms: 6
Number of atomic orbitals: 42
Number of bands in calculation: 36
Number of valence electrons: 52
Bands to converge: occupied

... initialized

Initializing position-dependent things.

Density initialized from atomic densities
Creating initial wave functions:
  36 bands from LCAO basis set

                  
                  
                  
                  
                  
       Te         
                  
                  
                  
                  
                  
                  
         Te       
                  
                  
                  
       W          
                  
                  
                  
                  
                  
                  
         W        
                  
         Te       
                  
                  
                  
                  
                  
                  
                  
                  
                  
       Te         
                  
                  
                  
                  

Positions:
   0 W      1.748000    1.009208    3.530000    ( 0.0000,  0.0000,  0.0000)
   1 W      1.748000   -1.009208   10.590000    ( 0.0000,  0.0000,  0.0000)
   2 Te     1.748000    1.009208   12.284400    ( 0.0000,  0.0000,  0.0000)
   3 Te     1.748000   -1.009208   -5.224400    ( 0.0000,  0.0000,  0.0000)
   4 Te     1.748000    1.009208    1.835600    ( 0.0000,  0.0000,  0.0000)
   5 Te     1.748000   -1.009208   19.344400    ( 0.0000,  0.0000,  0.0000)

Unit cell:
           periodic     x           y           z      points  spacing
  1. axis:    yes    1.748000   -3.027625    0.000000    20     0.1514
  2. axis:    yes    1.748000    3.027625    0.000000    20     0.1514
  3. axis:    yes    0.000000    0.000000   14.120000    80     0.1765

  Lengths:   3.496000   3.496000  14.120000
  Angles:   90.000000  90.000000 120.000000

Effective grid spacing dv^(1/3) = 0.1672

     iter     time        total  log10-change:
                         energy   eigst   dens
iter:   1 23:30:59     1.733275
iter:   2 23:31:10     3.687633   -0.69  -0.96
iter:   3 23:31:22     4.966229   -1.24  -1.11
iter:   4 23:31:33     5.551024   -1.48  -1.23
iter:   5 23:31:44     5.851971   -1.64  -1.41
iter:   6 23:31:55     5.854634   -2.46  -1.85
iter:   7 23:32:07     5.860130c  -3.46  -1.91
iter:   8 23:32:18     5.850159c  -2.79  -1.97
iter:   9 23:32:29     5.854399c  -3.23  -2.25
iter:  10 23:32:41     5.853440c  -4.00  -2.60
iter:  11 23:32:53     5.854593c  -3.88  -2.64
iter:  12 23:33:05     5.854655c  -4.62  -2.96
iter:  13 23:33:17     5.854648c  -5.60  -3.23
iter:  14 23:33:29     5.854723c  -5.55  -3.27
iter:  15 23:33:41     5.854700c  -5.86  -3.45
iter:  16 23:33:54     5.854728c  -6.36  -3.59
iter:  17 23:34:07     5.854755c  -7.33  -3.76
iter:  18 23:34:21     5.854807c  -6.52  -3.83
iter:  19 23:34:34     5.854810c  -7.86c -4.06c

Converged after 19 iterations.

Dipole moment: (0.000000, -0.000000, -0.162232) |e|*Ang

Energy contributions relative to reference atoms: (reference = -1616706.077045)

Kinetic:       +529.683000
Potential:     -446.616914
External:        +0.000000
XC:             -75.628504
Entropy (-ST):   -0.068835
Local:           -1.548355
SIC:             +0.000000
--------------------------
Free energy:     +5.820392
Extrapolated:    +5.854810

Showing only first 2 kpts
 Kpt  Band  Eigenvalues  Occupancy
  0    24      7.62458    2.00000
  0    25      8.71513    1.90152
  0    26     10.66004    0.00000
  0    27     10.78758    0.00000

  1    24      7.62458    2.00000
  1    25      8.71513    1.90152
  1    26     10.66004    0.00000
  1    27     10.78758    0.00000


Fermi level: 9.01119

Gap: 0.204 eV
Transition (v -> c):
  (s=0, k=3, n=25, [0.15, -0.15, -0.25]) -> (s=0, k=21, n=26, [0.35, -0.35, -0.25])
Direct/indirect transitions are different
Direct gap: 0.585 eV
Transition at: (s=0, k=12, n=25, [0.25, -0.15, -0.25])

Forces in eV/Ang:
  0 W     0.00000   -0.00000   75.63191
  1 W     0.00000   -0.00000   75.63191
  2 Te   -0.00000   -0.00000    2.23037
  3 Te   -0.00000    0.00000  -77.86893
  4 Te    0.00000   -0.00000  -77.86893
  5 Te    0.00000    0.00000    2.23037

System changes: positions 

Initializing position-dependent things.

Density initialized from wave functions
                  
                  
                  
                  
                  
       Te         
                  
                  
                  
                  
                  
                  
         Te       
                  
                  
                  
       W          
                  
                  
                  
                  
                  
                  
         W        
                  
         Te       
                  
                  
                  
                  
                  
                  
                  
                  
                  
       Te         
                  
                  
                  
                  

Positions:
   0 W      1.748000    1.009208    3.724254    ( 0.0000,  0.0000,  0.0000)
   1 W      1.748000   -1.009208   10.784254    ( 0.0000,  0.0000,  0.0000)
   2 Te     1.748000    1.009208   12.290129    ( 0.0000,  0.0000,  0.0000)
   3 Te     1.748000   -1.009208   -5.424400    ( 0.0000,  0.0000,  0.0000)
   4 Te     1.748000    1.009208    1.635600    ( 0.0000,  0.0000,  0.0000)
   5 Te     1.748000   -1.009208   19.350129    ( 0.0000,  0.0000,  0.0000)

Unit cell:
           periodic     x           y           z      points  spacing
  1. axis:    yes    1.748000   -3.027625    0.000000    20     0.1514
  2. axis:    yes    1.748000    3.027625    0.000000    20     0.1514
  3. axis:    yes    0.000000    0.000000   14.120000    80     0.1765

  Lengths:   3.496000   3.496000  14.120000
  Angles:   90.000000  90.000000 120.000000

Effective grid spacing dv^(1/3) = 0.1672

     iter     time        total  log10-change:
                         energy   eigst   dens
iter:   1 23:34:48   -46.182669   +0.46
iter:   2 23:35:01   -37.271383   -0.89  -0.70
iter:   3 23:35:13   -25.948297   -0.14  -0.81
iter:   4 23:35:26   -25.811586   -2.01  -1.41
iter:   5 23:35:39   -25.752913   -2.37  -1.53
iter:   6 23:35:51   -25.273080   -1.54  -1.59
iter:   7 23:36:04   -25.260397   -3.20  -1.98
iter:   8 23:36:17   -25.244477   -3.22  -2.02
iter:   9 23:36:30   -25.220705   -2.75  -2.14
iter:  10 23:36:42   -25.204921   -3.25  -2.16
iter:  11 23:36:55   -25.204040c  -3.73  -2.49
iter:  12 23:37:08   -25.203990c  -4.67  -2.62
iter:  13 23:37:21   -25.202950c  -3.87  -2.64
iter:  14 23:37:34   -25.203031c  -4.67  -2.96
iter:  15 23:37:46   -25.203258c  -5.24  -3.10
iter:  16 23:37:59   -25.203284c  -5.92  -3.14
iter:  17 23:38:12   -25.202802c  -5.37  -3.15
iter:  18 23:38:25   -25.202765c  -5.52  -3.35
iter:  19 23:38:37   -25.202801c  -6.15  -3.60
iter:  20 23:38:50   -25.202837c  -6.65  -3.76
iter:  21 23:39:03   -25.202830c  -6.99  -4.06c
iter:  22 23:39:16   -25.202820c  -7.85c -4.26c

Converged after 22 iterations.

Dipole moment: (0.000000, -0.000009, -0.575680) |e|*Ang

Energy contributions relative to reference atoms: (reference = -1616706.077045)

Kinetic:       +229.901205
Potential:     -200.433004
External:        +0.000000
XC:             -54.319285
Entropy (-ST):   -0.133600
Local:           -0.284936
SIC:             +0.000000
--------------------------
Free energy:    -25.269620
Extrapolated:   -25.202820

Showing only first 2 kpts
 Kpt  Band  Eigenvalues  Occupancy
  0    24      8.46909    1.94671
  0    25      9.43121    0.00483
  0    26     10.70995    0.00000
  0    27     10.81953    0.00000

  1    24      8.46909    1.94671
  1    25      9.43121    0.00483
  1    26     10.70995    0.00000
  1    27     10.81953    0.00000


Fermi level: 8.82890

No gap
No difference between direct/indirect transitions

Forces in eV/Ang:
  0 W     0.00000   -0.00000   12.40961
  1 W    -0.00000    0.00000   12.41078
  2 Te   -0.00000   -0.00000    3.81455
  3 Te    0.00000    0.00000  -16.22899
  4 Te   -0.00000   -0.00000  -16.22841
  5 Te    0.00000    0.00000    3.81397

System changes: positions 

Initializing position-dependent things.

Density initialized from wave functions
                  
                  
                  
                  
                  
       Te         
                  
                  
                  
                  
                  
                  
                  
         Te       
                  
                  
       W          
                  
                  
                  
                  
                  
                  
         W        
                  
                  
         Te       
                  
                  
                  
                  
                  
                  
                  
                  
                  
       Te         
                  
                  
                  
                  

Positions:
   0 W      1.748000    1.009208    3.740313    ( 0.0000,  0.0000,  0.0000)
   1 W      1.748000   -1.009208   10.800313    ( 0.0000,  0.0000,  0.0000)
   2 Te     1.748000    1.009208   12.351234    ( 0.0000,  0.0000,  0.0000)
   3 Te     1.748000   -1.009208   -5.501621    ( 0.0000,  0.0000,  0.0000)
   4 Te     1.748000    1.009208    1.558379    ( 0.0000,  0.0000,  0.0000)
   5 Te     1.748000   -1.009208   19.411234    ( 0.0000,  0.0000,  0.0000)

Unit cell:
           periodic     x           y           z      points  spacing
  1. axis:    yes    1.748000   -3.027625    0.000000    20     0.1514
  2. axis:    yes    1.748000    3.027625    0.000000    20     0.1514
  3. axis:    yes    0.000000    0.000000   14.120000    80     0.1765

  Lengths:   3.496000   3.496000  14.120000
  Angles:   90.000000  90.000000 120.000000

Effective grid spacing dv^(1/3) = 0.1672

     iter     time        total  log10-change:
                         energy   eigst   dens
iter:   1 23:39:30   -28.098309   -1.31
iter:   2 23:39:43   -28.017863   -2.65  -1.69
iter:   3 23:39:55   -27.943220   -2.49  -1.82
iter:   4 23:40:08   -27.935083   -3.63  -2.11
iter:   5 23:40:22   -27.927637c  -3.90  -2.21
iter:   6 23:40:34   -27.923685c  -3.52  -2.34
iter:   7 23:40:48   -27.919750c  -3.83  -2.48
iter:   8 23:41:01   -27.919532c  -4.86  -2.89
iter:   9 23:41:14   -27.919532c  -4.71  -2.94
iter:  10 23:41:26   -27.919291c  -5.38  -3.15
iter:  11 23:41:39   -27.919310c  -6.49  -3.44
iter:  12 23:41:51   -27.919311c  -7.14  -3.49
iter:  13 23:42:04   -27.919303c  -6.68  -3.51
iter:  14 23:42:17   -27.919280c  -6.36  -3.60
iter:  15 23:42:31   -27.919270c  -7.31  -3.95
iter:  16 23:42:43   -27.919254c  -6.76  -4.06c
iter:  17 23:42:56   -27.919254c  -8.26c -4.34c

Converged after 17 iterations.

Dipole moment: (0.000000, 0.000009, -0.730702) |e|*Ang

Energy contributions relative to reference atoms: (reference = -1616706.077045)

Kinetic:       +178.178622
Potential:     -156.528936
External:        +0.000000
XC:             -49.410124
Entropy (-ST):   -0.143880
Local:           -0.086876
SIC:             +0.000000
--------------------------
Free energy:    -27.991195
Extrapolated:   -27.919254

Showing only first 2 kpts
 Kpt  Band  Eigenvalues  Occupancy
  0    24      8.44170    1.92765
  0    25      9.39927    0.00369
  0    26     10.64362    0.00000
  0    27     10.75834    0.00000

  1    24      8.44170    1.92765
  1    25      9.39927    0.00369
  1    26     10.64362    0.00000
  1    27     10.75834    0.00000


Fermi level: 8.76995

No gap
No difference between direct/indirect transitions

Forces in eV/Ang:
  0 W    -0.00000    0.00000    7.31993
  1 W    -0.00000    0.00000    7.31940
  2 Te   -0.00000    0.00000    2.77665
  3 Te    0.00000    0.00000  -10.10164
  4 Te   -0.00000   -0.00000  -10.10204
  5 Te    0.00000    0.00000    2.77724

System changes: positions 

Initializing position-dependent things.

Density initialized from wave functions
                  
                  
                  
                  
                  
       Te         
                  
                  
                  
                  
                  
                  
                  
         Te       
                  
                  
       W          
                  
                  
                  
                  
                  
                  
         W        
                  
                  
         Te       
                  
                  
                  
                  
                  
                  
                  
                  
                  
       Te         
                  
                  
                  
                  

Positions:
   0 W      1.748000    1.009208    3.758653    ( 0.0000,  0.0000,  0.0000)
   1 W      1.748000   -1.009208   10.818653    ( 0.0000,  0.0000,  0.0000)
   2 Te     1.748000    1.009208   12.471325    ( 0.0000,  0.0000,  0.0000)
   3 Te     1.748000   -1.009208   -5.640250    ( 0.0000,  0.0000,  0.0000)
   4 Te     1.748000    1.009208    1.419750    ( 0.0000,  0.0000,  0.0000)
   5 Te     1.748000   -1.009208   19.531325    ( 0.0000,  0.0000,  0.0000)

Unit cell:
           periodic     x           y           z      points  spacing
  1. axis:    yes    1.748000   -3.027625    0.000000    20     0.1514
  2. axis:    yes    1.748000    3.027625    0.000000    20     0.1514
  3. axis:    yes    0.000000    0.000000   14.120000    80     0.1765

  Lengths:   3.496000   3.496000  14.120000
  Angles:   90.000000  90.000000 120.000000

Effective grid spacing dv^(1/3) = 0.1672

     iter     time        total  log10-change:
                         energy   eigst   dens
iter:   1 23:43:10   -30.537845   -0.94
iter:   2 23:43:23   -30.423000   -2.36  -1.58
iter:   3 23:43:35   -30.289755   -2.29  -1.69
iter:   4 23:43:48   -30.282651   -3.37  -1.98
iter:   5 23:44:01   -30.266785c  -3.74  -2.01
iter:   6 23:44:14   -30.257994c  -3.23  -2.15
iter:   7 23:44:28   -30.251510c  -3.45  -2.29
iter:   8 23:44:41   -30.251318c  -4.60  -2.67
iter:   9 23:44:55   -30.250829c  -4.58  -2.73
iter:  10 23:45:09   -30.250755c  -4.98  -2.93
iter:  11 23:45:23   -30.250624c  -5.70  -3.06
iter:  12 23:45:36   -30.250640c  -6.05  -3.30
iter:  13 23:45:49   -30.250644c  -6.97  -3.32
iter:  14 23:46:02   -30.250633c  -6.38  -3.32
iter:  15 23:46:15   -30.250611c  -5.72  -3.41
iter:  16 23:46:27   -30.250551c  -5.76  -3.55
iter:  17 23:46:40   -30.250560c  -7.01  -3.85
iter:  18 23:46:52   -30.250560c  -7.86c -4.03c

Converged after 18 iterations.

Dipole moment: (-0.000000, 0.000005, -1.110519) |e|*Ang

Energy contributions relative to reference atoms: (reference = -1616706.077045)

Kinetic:       +109.900898
Potential:      -97.778890
External:        +0.000000
XC:             -42.397839
Entropy (-ST):   -0.178563
Local:           +0.114553
SIC:             +0.000000
--------------------------
Free energy:    -30.339842
Extrapolated:   -30.250560

Showing only first 2 kpts
 Kpt  Band  Eigenvalues  Occupancy
  0    24      8.40924    1.91657
  0    25      9.33021    0.00459
  0    26     10.47229    0.00000
  0    27     10.59618    0.00000

  1    24      8.40924    1.91657
  1    25      9.33021    0.00459
  1    26     10.47229    0.00000
  1    27     10.59618    0.00000


Fermi level: 8.72267

No gap
No difference between direct/indirect transitions

Forces in eV/Ang:
  0 W    -0.00000    0.00000    2.80934
  1 W     0.00000    0.00000    2.80840
  2 Te   -0.00000    0.00000    0.50436
  3 Te    0.00000    0.00000   -3.31712
  4 Te   -0.00000   -0.00000   -3.31786
  5 Te    0.00000    0.00000    0.50439

System changes: positions 

Initializing position-dependent things.

Density initialized from wave functions
                  
                  
                  
                  
                  
       Te         
                  
                  
                  
                  
                  
                  
         Te       
                  
                  
                  
       W          
                  
                  
                  
                  
                  
                  
         W        
                  
                  
         Te       
                  
                  
                  
                  
                  
                  
                  
                  
                  
       Te         
                  
                  
                  
                  

Positions:
   0 W      1.748000    1.009208    3.771819    ( 0.0000,  0.0000,  0.0000)
   1 W      1.748000   -1.009208   10.831819    ( 0.0000,  0.0000,  0.0000)
   2 Te     1.748000    1.009208   12.517953    ( 0.0000,  0.0000,  0.0000)
   3 Te     1.748000   -1.009208   -5.700187    ( 0.0000,  0.0000,  0.0000)
   4 Te     1.748000    1.009208    1.359813    ( 0.0000,  0.0000,  0.0000)
   5 Te     1.748000   -1.009208   19.577953    ( 0.0000,  0.0000,  0.0000)

Unit cell:
           periodic     x           y           z      points  spacing
  1. axis:    yes    1.748000   -3.027625    0.000000    20     0.1514
  2. axis:    yes    1.748000    3.027625    0.000000    20     0.1514
  3. axis:    yes    0.000000    0.000000   14.120000    80     0.1765

  Lengths:   3.496000   3.496000  14.120000
  Angles:   90.000000  90.000000 120.000000

Effective grid spacing dv^(1/3) = 0.1672

     iter     time        total  log10-change:
                         energy   eigst   dens
iter:   1 23:47:06   -30.644719   -1.68
iter:   2 23:47:19   -30.613656   -3.16  -1.86
iter:   3 23:47:32   -30.591257   -3.08  -1.99
iter:   4 23:47:45   -30.579059   -3.78  -2.15
iter:   5 23:47:58   -30.576634c  -4.33  -2.41
iter:   6 23:48:11   -30.575123c  -3.98  -2.51
iter:   7 23:48:24   -30.573923c  -4.31  -2.64
iter:   8 23:48:36   -30.573882c  -5.06  -3.00
iter:   9 23:48:50   -30.573842c  -6.09  -3.09
iter:  10 23:49:03   -30.573855c  -5.20  -3.18
iter:  11 23:49:16   -30.573850c  -6.42  -3.51
iter:  12 23:49:29   -30.573835c  -6.86  -3.58
iter:  13 23:49:42   -30.573830c  -7.25  -3.66
iter:  14 23:49:55   -30.573831c  -7.15  -3.70
iter:  15 23:50:09   -30.573825c  -7.24  -3.83
iter:  16 23:50:21   -30.573823c  -7.16  -4.04c
iter:  17 23:50:34   -30.573820c  -8.35c -4.22c

Converged after 17 iterations.

Dipole moment: (-0.000000, 0.000007, -1.363333) |e|*Ang

Energy contributions relative to reference atoms: (reference = -1616706.077045)

Kinetic:        +88.795370
Potential:      -79.246128
External:        +0.000000
XC:             -40.141806
Entropy (-ST):   -0.204939
Local:           +0.121212
SIC:             +0.000000
--------------------------
Free energy:    -30.676289
Extrapolated:   -30.573820

Showing only first 2 kpts
 Kpt  Band  Eigenvalues  Occupancy
  0    24      8.45433    1.88025
  0    25      9.34871    0.00409
  0    26     10.37556    0.00000
  0    27     10.50071    0.00000

  1    24      8.45433    1.88025
  1    25      9.34871    0.00409
  1    26     10.37556    0.00000
  1    27     10.50071    0.00000


Fermi level: 8.72970

No gap
No difference between direct/indirect transitions

Forces in eV/Ang:
  0 W    -0.00000   -0.00000    1.65718
  1 W     0.00000    0.00000    1.65591
  2 Te   -0.00000   -0.00000   -0.36304
  3 Te   -0.00000   -0.00000   -1.29080
  4 Te    0.00000   -0.00000   -1.29108
  5 Te   -0.00000    0.00000   -0.36266

System changes: positions 

Initializing position-dependent things.

Density initialized from wave functions
                  
                  
                  
                  
                  
       Te         
                  
                  
                  
                  
                  
                  
         Te       
                  
                  
                  
       W          
                  
                  
                  
                  
                  
                  
         W        
                  
                  
         Te       
                  
                  
                  
                  
                  
                  
                  
                  
                  
       Te         
                  
                  
                  
                  

Positions:
   0 W      1.748000    1.009208    3.785861    ( 0.0000,  0.0000,  0.0000)
   1 W      1.748000   -1.009208   10.845861    ( 0.0000,  0.0000,  0.0000)
   2 Te     1.748000    1.009208   12.530965    ( 0.0000,  0.0000,  0.0000)
   3 Te     1.748000   -1.009208   -5.727228    ( 0.0000,  0.0000,  0.0000)
   4 Te     1.748000    1.009208    1.332772    ( 0.0000,  0.0000,  0.0000)
   5 Te     1.748000   -1.009208   19.590965    ( 0.0000,  0.0000,  0.0000)

Unit cell:
           periodic     x           y           z      points  spacing
  1. axis:    yes    1.748000   -3.027625    0.000000    20     0.1514
  2. axis:    yes    1.748000    3.027625    0.000000    20     0.1514
  3. axis:    yes    0.000000    0.000000   14.120000    80     0.1765

  Lengths:   3.496000   3.496000  14.120000
  Angles:   90.000000  90.000000 120.000000

Effective grid spacing dv^(1/3) = 0.1672

     iter     time        total  log10-change:
                         energy   eigst   dens
iter:   1 23:50:48   -30.691283   -2.17
iter:   2 23:51:01   -30.665048   -3.63  -1.93
iter:   3 23:51:14   -30.647464   -3.23  -2.07
iter:   4 23:51:27   -30.639648c  -4.04  -2.27
iter:   5 23:51:39   -30.638608c  -4.52  -2.65
iter:   6 23:51:52   -30.638225c  -4.59  -2.82
iter:   7 23:52:05   -30.637869c  -5.09  -2.89
iter:   8 23:52:18   -30.637828c  -5.50  -3.22
iter:   9 23:52:31   -30.637825c  -6.70  -3.36
iter:  10 23:52:44   -30.637832c  -5.67  -3.39
iter:  11 23:52:56   -30.637829c  -6.45  -3.71
iter:  12 23:53:10   -30.637828c  -6.96  -3.75
iter:  13 23:53:22   -30.637825c  -7.66c -3.86
iter:  14 23:53:35   -30.637819c  -7.56c -3.96
iter:  15 23:53:47   -30.637812c  -7.39  -4.14c
iter:  16 23:54:01   -30.637811c  -8.29c -4.56c

Converged after 16 iterations.

Dipole moment: (0.000000, -0.000004, -1.532639) |e|*Ang

Energy contributions relative to reference atoms: (reference = -1616706.077045)

Kinetic:        +81.606254
Potential:      -72.859907
External:        +0.000000
XC:             -39.413950
Entropy (-ST):   -0.218667
Local:           +0.139126
SIC:             +0.000000
--------------------------
Free energy:    -30.747144
Extrapolated:   -30.637811

Showing only first 2 kpts
 Kpt  Band  Eigenvalues  Occupancy
  0    24      8.50092    1.82396
  0    25      9.39110    0.00282
  0    26     10.33957    0.00000
  0    27     10.46436    0.00000

  1    24      8.50092    1.82396
  1    25      9.39110    0.00282
  1    26     10.33957    0.00000
  1    27     10.46436    0.00000


Fermi level: 8.73473

No gap
No difference between direct/indirect transitions

Forces in eV/Ang:
  0 W     0.00000   -0.00000    1.00494
  1 W     0.00000    0.00000    1.00490
  2 Te    0.00000   -0.00000   -0.57542
  3 Te    0.00000    0.00000   -0.43009
  4 Te    0.00000    0.00000   -0.43014
  5 Te   -0.00000    0.00000   -0.57556

System changes: positions 

Initializing position-dependent things.

Density initialized from wave functions
                  
                  
                  
                  
                  
       Te         
                  
                  
                  
                  
                  
                  
         Te       
                  
                  
                  
       W          
                  
                  
                  
                  
                  
                  
         W        
                  
                  
         Te       
                  
                  
                  
                  
                  
                  
                  
                  
                  
       Te         
                  
                  
                  
                  

Positions:
   0 W      1.748000    1.009208    3.800197    ( 0.0000,  0.0000,  0.0000)
   1 W      1.748000   -1.009208   10.860197    ( 0.0000,  0.0000,  0.0000)
   2 Te     1.748000    1.009208   12.527750    ( 0.0000,  0.0000,  0.0000)
   3 Te     1.748000   -1.009208   -5.738375    ( 0.0000,  0.0000,  0.0000)
   4 Te     1.748000    1.009208    1.321625    ( 0.0000,  0.0000,  0.0000)
   5 Te     1.748000   -1.009208   19.587750    ( 0.0000,  0.0000,  0.0000)

Unit cell:
           periodic     x           y           z      points  spacing
  1. axis:    yes    1.748000   -3.027625    0.000000    20     0.1514
  2. axis:    yes    1.748000    3.027625    0.000000    20     0.1514
  3. axis:    yes    0.000000    0.000000   14.120000    80     0.1765

  Lengths:   3.496000   3.496000  14.120000
  Angles:   90.000000  90.000000 120.000000

Effective grid spacing dv^(1/3) = 0.1672

     iter     time        total  log10-change:
                         energy   eigst   dens
iter:   1 23:54:14   -30.715470   -2.35
iter:   2 23:54:27   -30.688967   -3.83  -1.94
iter:   3 23:54:40   -30.666129   -3.25  -2.10
iter:   4 23:54:53   -30.664641c  -4.01  -2.62
iter:   5 23:55:06   -30.664431c  -5.09  -2.89
iter:   6 23:55:19   -30.664256c  -5.29  -2.98
iter:   7 23:55:32   -30.664068c  -5.22  -3.05
iter:   8 23:55:44   -30.664057c  -6.11  -3.46
iter:   9 23:55:57   -30.664051c  -7.11  -3.50
iter:  10 23:56:10   -30.664033c  -6.15  -3.54
iter:  11 23:56:23   -30.664033c  -6.88  -4.06c
iter:  12 23:56:36   -30.664033c  -8.01c -4.10c

Converged after 12 iterations.

Dipole moment: (0.000000, -0.000000, -1.643834) |e|*Ang

Energy contributions relative to reference atoms: (reference = -1616706.077045)

Kinetic:        +79.987489
Potential:      -71.356204
External:        +0.000000
XC:             -39.323084
Entropy (-ST):   -0.226303
Local:           +0.140918
SIC:             +0.000000
--------------------------
Free energy:    -30.777184
Extrapolated:   -30.664033

Showing only first 2 kpts
 Kpt  Band  Eigenvalues  Occupancy
  0    24      8.54365    1.74107
  0    25      9.44123    0.00170
  0    26     10.33967    0.00000
  0    27     10.46408    0.00000

  1    24      8.54365    1.74106
  1    25      9.44123    0.00170
  1    26     10.33967    0.00000
  1    27     10.46408    0.00000


Fermi level: 8.73422

No gap
No difference between direct/indirect transitions

Forces in eV/Ang:
  0 W    -0.00000   -0.00000    0.50182
  1 W     0.00000    0.00000    0.50124
  2 Te   -0.00000    0.00000   -0.43647
  3 Te    0.00000   -0.00000   -0.06762
  4 Te   -0.00000    0.00000   -0.06743
  5 Te   -0.00000    0.00000   -0.43609

System changes: positions 

Initializing position-dependent things.

Density initialized from wave functions
                  
                  
                  
                  
                  
       Te         
                  
                  
                  
                  
                  
                  
         Te       
                  
                  
                  
       W          
                  
                  
                  
                  
                  
                  
         W        
                  
                  
         Te       
                  
                  
                  
                  
                  
                  
                  
                  
                  
       Te         
                  
                  
                  
                  

Positions:
   0 W      1.748000    1.009208    3.813644    ( 0.0000,  0.0000,  0.0000)
   1 W      1.748000   -1.009208   10.873644    ( 0.0000,  0.0000,  0.0000)
   2 Te     1.748000    1.009208   12.517355    ( 0.0000,  0.0000,  0.0000)
   3 Te     1.748000   -1.009208   -5.741490    ( 0.0000,  0.0000,  0.0000)
   4 Te     1.748000    1.009208    1.318510    ( 0.0000,  0.0000,  0.0000)
   5 Te     1.748000   -1.009208   19.577355    ( 0.0000,  0.0000,  0.0000)

Unit cell:
           periodic     x           y           z      points  spacing
  1. axis:    yes    1.748000   -3.027625    0.000000    20     0.1514
  2. axis:    yes    1.748000    3.027625    0.000000    20     0.1514
  3. axis:    yes    0.000000    0.000000   14.120000    80     0.1765

  Lengths:   3.496000   3.496000  14.120000
  Angles:   90.000000  90.000000 120.000000

Effective grid spacing dv^(1/3) = 0.1672

     iter     time        total  log10-change:
                         energy   eigst   dens
iter:   1 23:56:50   -30.719316   -2.40
iter:   2 23:57:02   -30.695823   -3.89  -1.97
iter:   3 23:57:15   -30.677891   -3.37  -2.14
iter:   4 23:57:28   -30.676972c  -4.31  -2.55
iter:   5 23:57:41   -30.675069c  -4.35  -2.61
iter:   6 23:57:53   -30.674876c  -4.97  -3.03
iter:   7 23:58:07   -30.674737c  -5.12  -3.09
iter:   8 23:58:19   -30.674726c  -6.06  -3.47
iter:   9 23:58:32   -30.674715c  -7.12  -3.52
iter:  10 23:58:45   -30.674701c  -6.27  -3.57
iter:  11 23:58:58   -30.674675c  -6.53  -3.60
iter:  12 23:59:11   -30.674676c  -7.55c -4.06c

Converged after 12 iterations.

Dipole moment: (0.000000, 0.000013, -1.714664) |e|*Ang

Energy contributions relative to reference atoms: (reference = -1616706.077045)

Kinetic:        +80.944721
Potential:      -72.117731
External:        +0.000000
XC:             -39.522654
Entropy (-ST):   -0.230916
Local:           +0.136446
SIC:             +0.000000
--------------------------
Free energy:    -30.790134
Extrapolated:   -30.674676

Showing only first 2 kpts
 Kpt  Band  Eigenvalues  Occupancy
  0    24      8.58631    1.61848
  0    25      9.49418    0.00097
  0    26     10.35667    0.00000
  0    27     10.48093    0.00000

  1    24      8.58631    1.61848
  1    25      9.49418    0.00097
  1    26     10.35667    0.00000
  1    27     10.48093    0.00000


Fermi level: 8.73082

No gap
No difference between direct/indirect transitions

Forces in eV/Ang:
  0 W     0.00000    0.00000    0.04230
  1 W     0.00000    0.00000    0.04195
  2 Te   -0.00000   -0.00000   -0.12825
  3 Te    0.00000    0.00000    0.10627
  4 Te    0.00000    0.00000    0.10570
  5 Te    0.00000    0.00000   -0.12856

System changes: positions 

Initializing position-dependent things.

Density initialized from wave functions
                  
                  
                  
                  
                  
       Te         
                  
                  
                  
                  
                  
                  
         Te       
                  
                  
                  
       W          
                  
                  
                  
                  
                  
                  
         W        
                  
                  
         Te       
                  
                  
                  
                  
                  
                  
                  
                  
                  
       Te         
                  
                  
                  
                  

Positions:
   0 W      1.748000    1.009208    3.815306    ( 0.0000,  0.0000,  0.0000)
   1 W      1.748000   -1.009208   10.875306    ( 0.0000,  0.0000,  0.0000)
   2 Te     1.748000    1.009208   12.513072    ( 0.0000,  0.0000,  0.0000)
   3 Te     1.748000   -1.009208   -5.738544    ( 0.0000,  0.0000,  0.0000)
   4 Te     1.748000    1.009208    1.321456    ( 0.0000,  0.0000,  0.0000)
   5 Te     1.748000   -1.009208   19.573072    ( 0.0000,  0.0000,  0.0000)

Unit cell:
           periodic     x           y           z      points  spacing
  1. axis:    yes    1.748000   -3.027625    0.000000    20     0.1514
  2. axis:    yes    1.748000    3.027625    0.000000    20     0.1514
  3. axis:    yes    0.000000    0.000000   14.120000    80     0.1765

  Lengths:   3.496000   3.496000  14.120000
  Angles:   90.000000  90.000000 120.000000

Effective grid spacing dv^(1/3) = 0.1672

     iter     time        total  log10-change:
                         energy   eigst   dens
iter:   1 23:59:25   -30.676889   -3.84
iter:   2 23:59:38   -30.676418   -5.34  -2.82
iter:   3 23:59:51   -30.676275c  -5.27  -2.99
iter:   4 00:00:05   -30.676044c  -5.76  -3.03
iter:   5 00:00:19   -30.675981c  -5.70  -3.39
iter:   6 00:00:32   -30.675970c  -6.33  -3.62
iter:   7 00:00:45   -30.675970c  -6.86  -3.71
iter:   8 00:00:58   -30.675976c  -6.61  -3.87
iter:   9 00:01:11   -30.675975c  -7.73c -4.18c

Converged after 9 iterations.

Dipole moment: (0.000000, 0.000001, -1.704088) |e|*Ang

Energy contributions relative to reference atoms: (reference = -1616706.077045)

Kinetic:        +82.074579
Potential:      -73.093445
External:        +0.000000
XC:             -39.660960
Entropy (-ST):   -0.230627
Local:           +0.119164
SIC:             +0.000000
--------------------------
Free energy:    -30.791289
Extrapolated:   -30.675975

Showing only first 2 kpts
 Kpt  Band  Eigenvalues  Occupancy
  0    24      8.59295    1.59118
  0    25      9.50286    0.00087
  0    26     10.36576    0.00000
  0    27     10.48997    0.00000

  1    24      8.59295    1.59118
  1    25      9.50286    0.00087
  1    26     10.36576    0.00000
  1    27     10.48997    0.00000


Fermi level: 8.72885

No gap
No difference between direct/indirect transitions

Forces in eV/Ang:
  0 W    -0.00000    0.00000   -0.01477
  1 W    -0.00000    0.00000   -0.01526
  2 Te    0.00000    0.00000   -0.02733
  3 Te    0.00000    0.00000    0.03582
  4 Te    0.00000    0.00000    0.03522
  5 Te    0.00000    0.00000   -0.02749

Timing:                                      incl.     excl.
-------------------------------------------------------------------
Density initialized from wave functions:     5.845     5.830   0.3% |
 Symmetrize density:                         0.015     0.015   0.0% |
Forces:                                      6.449     6.449   0.3% |
Hamiltonian:                                 1.533     0.008   0.0% |
 Atomic:                                     1.043     0.005   0.0% |
  XC Correction:                             1.038     1.038   0.0% |
 Calculate atomic Hamiltonians:              0.093     0.093   0.0% |
 Communicate:                                0.000     0.000   0.0% |
 Initialize Hamiltonian:                     0.000     0.000   0.0% |
 Poisson:                                    0.005     0.005   0.0% |
 XC 3D grid:                                 0.384     0.384   0.0% |
LCAO initialization:                         9.844     0.052   0.0% |
 LCAO eigensolver:                           4.147     0.002   0.0% |
  Calculate projections:                     0.004     0.004   0.0% |
  DenseAtomicCorrection:                     0.012     0.012   0.0% |
  Distribute overlap matrix:                 0.001     0.001   0.0% |
  Orbital Layouts:                           2.256     2.256   0.1% |
  Potential matrix:                          0.216     0.216   0.0% |
  Sum over cells:                            1.655     1.655   0.1% |
 LCAO to grid:                               5.267     5.267   0.2% |
 Set positions (LCAO WFS):                   0.378     0.049   0.0% |
  Basic WFS set positions:                   0.000     0.000   0.0% |
  Basis functions set positions:             0.000     0.000   0.0% |
  P tci:                                     0.219     0.219   0.0% |
  ST tci:                                    0.105     0.105   0.0% |
  mktci:                                     0.004     0.004   0.0% |
PWDescriptor:                                0.038     0.038   0.0% |
Redistribute:                                0.047     0.047   0.0% |
SCF-cycle:                                1806.976     2.012   0.1% |
 Davidson:                                1666.126   201.601   9.5% |---|
  Apply H:                                 319.605   315.550  14.9% |-----|
   HMM T:                                    4.054     4.054   0.2% |
  Subspace diag:                           363.697     0.563   0.0% |
   calc_h_matrix:                          336.418    15.364   0.7% |
    Apply H:                               321.054   316.689  15.0% |-----|
     HMM T:                                  4.365     4.365   0.2% |
   diagonalize:                              3.132     3.132   0.1% |
   rotate_psi:                              23.584    23.584   1.1% |
  calc. matrices:                          657.952    80.284   3.8% |-|
   Apply H:                                577.668   569.090  26.9% |----------|
    HMM T:                                   8.578     8.578   0.4% |
  diagonalize:                              82.245    82.245   3.9% |-|
  rotate_psi:                               41.025    41.025   1.9% ||
 Density:                                  110.466     0.002   0.0% |
  Atomic density matrices:                   0.539     0.539   0.0% |
  Mix:                                      11.806    11.806   0.6% |
  Multipole moments:                         0.012     0.012   0.0% |
  Pseudo density:                           98.108    97.854   4.6% |-|
   Symmetrize density:                       0.253     0.253   0.0% |
 Hamiltonian:                               24.674     0.126   0.0% |
  Atomic:                                   15.880     0.081   0.0% |
   XC Correction:                           15.798    15.798   0.7% |
  Calculate atomic Hamiltonians:             1.522     1.522   0.1% |
  Communicate:                               0.001     0.001   0.0% |
  Poisson:                                   0.090     0.090   0.0% |
  XC 3D grid:                                7.055     7.055   0.3% |
 Orthonormalize:                             3.698     0.034   0.0% |
  calc_s_matrix:                             0.491     0.491   0.0% |
  inverse-cholesky:                          0.063     0.063   0.0% |
  projections:                               2.375     2.375   0.1% |
  rotate_psi_s:                              0.734     0.734   0.0% |
Set symmetry:                                0.004     0.004   0.0% |
Other:                                     284.374   284.374  13.4% |----|
-------------------------------------------------------------------
Total:                                              2115.111 100.0%

Memory usage: 774.36 MiB
Date: Mon Apr  7 00:05:54 2025
