
  ___ ___ ___ _ _ _  
 |   |   |_  | | | | 
 | | | | | . | | | | 
 |__ |  _|___|_____|  25.1.0
 |___|_|             

User:   georgios-vourvachakis@georgios-vourvachakis-82K2
Date:   Mon Apr  7 02:01:50 2025
Arch:   x86_64
Pid:    589600
CWD:    /home/georgios-vourvachakis/Desktop/DFT_codes
Python: 3.12.3
gpaw:   /home/georgios-vourvachakis/Desktop/DFT_codes/.venv/lib/python3.12/site-packages/gpaw
_gpaw:  /home/georgios-vourvachakis/Desktop/DFT_codes/.venv/lib/python3.12/site-packages/
        _gpaw.cpython-312-x86_64-linux-gnu.so
ase:    /home/georgios-vourvachakis/Desktop/DFT_codes/.venv/lib/python3.12/site-packages/ase (version 3.24.0)
numpy:  /home/georgios-vourvachakis/Desktop/DFT_codes/.venv/lib/python3.12/site-packages/numpy (version 2.2.3)
scipy:  /home/georgios-vourvachakis/Desktop/DFT_codes/.venv/lib/python3.12/site-packages/scipy (version 1.15.1)
libxc:  5.2.3
units:  Angstrom and eV
cores: 1
OpenMP: False
OMP_NUM_THREADS: 1

Input parameters:
  kpts: [10 10  2]
  mode: {ecut: 600.0,
         name: pw}
  xc: PBE

System changes: positions, numbers, cell, pbc, initial_charges, initial_magmoms 

Initialize ...

species:
  W:
    name: Tungsten
    id: 3ed563b7d19992259c4d7db283f2ff78
    Z: 74.0
    valence: 14
    core: 60
    charge: 0.0
    file: /home/georgios-vourvachakis/Desktop/DFT_codes/gpaw_datasets/gpaw-setups-0.9.20000/W.PBE.gz
    compensation charges: {type: gauss,
                           rc: 0.40,
                           lmax: 2}
    cutoffs: {filter: 2.36,
              core: 3.02}
    projectors:
      #              energy  rcut
      - 5s(2.00)   -78.830   1.344
      - 6s(2.00)    -5.697   1.344
      - 5p(6.00)   -43.233   1.355
      - 6p(0.00)    -1.367   1.355
      - 5d(4.00)    -4.494   1.228
      -  d          22.717   1.228
  
    # Using partial waves for W as LCAO basis

  Te:
    name: Tellurium
    id: e44b9ef4772d7e5a1c6a47e6d6496588
    Z: 52.0
    valence: 6
    core: 46
    charge: 0.0
    file: /home/georgios-vourvachakis/Desktop/DFT_codes/gpaw_datasets/gpaw-setups-0.9.20000/Te.PBE.gz
    compensation charges: {type: gauss,
                           rc: 0.36,
                           lmax: 2}
    cutoffs: {filter: 2.09,
              core: 3.17}
    projectors:
      #              energy  rcut
      - 5s(2.00)   -15.089   1.180
      - 5p(4.00)    -5.955   1.196
      -  s          12.123   1.180
      -  p          21.256   1.196
      -  d           0.000   1.238
  
    # Using partial waves for Te as LCAO basis

Reference energy: -1616706.077045  # eV

Spin-paired calculation

Convergence criteria:
 Maximum [total energy] change in last 3 cyles: 0.0005 eV / valence electron
 Maximum integral of absolute [dens]ity change: 0.0001 electrons / valence electron
 Maximum integral of absolute [eigenst]ate change: 4e-08 eV^2 / valence electron
 Maximum number of scf [iter]ations: 333
 (Square brackets indicate name in SCF output, whereas a 'c' in
 the SCF output indicates the quantity has converged.)

Symmetries present (total): 6

  ( 1  1  0)  ( 1  0  0)  ( 0  1  0)  ( 0 -1  0)  (-1  0  0)  (-1 -1  0)
  ( 0 -1  0)  ( 0  1  0)  (-1 -1  0)  (-1  0  0)  ( 1  1  0)  ( 1  0  0)
  ( 0  0  1)  ( 0  0  1)  ( 0  0  1)  ( 0  0  1)  ( 0  0  1)  ( 0  0  1)
Note: your k-points are not as symmetric as your crystal!

200 k-points: 10 x 10 x 2 Monkhorst-Pack grid
55 k-points in the irreducible part of the Brillouin zone
       k-points in crystal coordinates                weights
   0:     0.05000000   -0.05000000   -0.25000000          2/200
   1:     0.05000000   -0.05000000    0.25000000          2/200
   2:     0.05000000    0.05000000    0.25000000          4/200
   3:     0.15000000   -0.15000000   -0.25000000          2/200
   4:     0.15000000   -0.15000000    0.25000000          2/200
   5:     0.15000000   -0.05000000   -0.25000000          4/200
   6:     0.15000000   -0.05000000    0.25000000          4/200
   7:     0.15000000    0.05000000   -0.25000000          4/200
   8:     0.15000000    0.05000000    0.25000000          4/200
   9:     0.15000000    0.15000000    0.25000000          4/200
          ...
  54:     0.45000000    0.45000000    0.25000000          4/200

Wave functions: Plane wave expansion
  Cutoff energy: 600.000 eV
  Number of coefficients (min, max): 5070, 5142
  Pulay-stress correction: 0.000000 eV/Ang^3 (de/decut=0.000000)
  Using Numpy's FFT
  ScaLapack parameters: grid=1x1, blocksize=None
  Wavefunction extrapolation:
    Improved wavefunction reuse through dual PAW basis 

Occupation numbers: Fermi-Dirac:
  width: 0.1000  # eV
 

Eigensolver
   Davidson(niter=2) 

Densities:
  Coarse grid: 21*21*80 grid
  Fine grid: 42*42*160 grid
  Total Charge: 0.000000 

Density mixing:
  Method: separate
  Backend: pulay
  Linear mixing parameter: 0.05
  old densities: 5
  Damping of long wavelength oscillations: 50 

Hamiltonian:
  XC and Coulomb potentials evaluated on a 42*42*160 grid
  Using the PBE Exchange-Correlation functional
  External potential:
    NoExternalPotential
 

XC parameters: PBE with 2 nearest neighbor stencil

Memory estimate:
  Process memory now: 794.32 MiB
  Calculator: 231.19 MiB
    Density: 16.46 MiB
      Arrays: 7.00 MiB
      Localized functions: 6.77 MiB
      Mixer: 2.69 MiB
    Hamiltonian: 4.74 MiB
      Arrays: 4.58 MiB
      XC: 0.00 MiB
      Poisson: 0.00 MiB
      vbar: 0.17 MiB
    Wavefunctions: 209.99 MiB
      Arrays psit_nG: 155.35 MiB
      Eigensolver: 3.42 MiB
      Projections: 2.66 MiB
      Projectors: 42.90 MiB
      PW-descriptor: 5.66 MiB

Total number of cores used: 1

Number of atoms: 6
Number of atomic orbitals: 42
Number of bands in calculation: 36
Number of valence electrons: 52
Bands to converge: occupied

... initialized

Initializing position-dependent things.

Density initialized from atomic densities
Creating initial wave functions:
  36 bands from LCAO basis set

                  
                  
                  
                  
                  
       Te         
                  
                  
                  
                  
                  
                  
         Te       
                  
                  
                  
       W          
                  
                  
                  
                  
                  
                  
         W        
                  
         Te       
                  
                  
                  
                  
                  
                  
                  
                  
                  
       Te         
                  
                  
                  
                  

Positions:
   0 W      1.773000    1.023642    3.517500    ( 0.0000,  0.0000,  0.0000)
   1 W      1.773000   -1.023642   10.552500    ( 0.0000,  0.0000,  0.0000)
   2 Te     1.773000    1.023642   12.240900    ( 0.0000,  0.0000,  0.0000)
   3 Te     1.773000   -1.023642   -5.205900    ( 0.0000,  0.0000,  0.0000)
   4 Te     1.773000    1.023642    1.829100    ( 0.0000,  0.0000,  0.0000)
   5 Te     1.773000   -1.023642   19.275900    ( 0.0000,  0.0000,  0.0000)

Unit cell:
           periodic     x           y           z      points  spacing
  1. axis:    yes    1.773000   -3.070926    0.000000    21     0.1462
  2. axis:    yes    1.773000    3.070926    0.000000    21     0.1462
  3. axis:    yes    0.000000    0.000000   14.070000    80     0.1759

  Lengths:   3.546000   3.546000  14.070000
  Angles:   90.000000  90.000000 120.000000

Effective grid spacing dv^(1/3) = 0.1632

     iter     time        total  log10-change:
                         energy   eigst   dens
iter:   1 02:02:13     2.456982
iter:   2 02:02:25     4.487336   -0.68  -0.95
iter:   3 02:02:37     5.759547   -1.23  -1.11
iter:   4 02:02:50     6.373820   -1.48  -1.23
iter:   5 02:03:02     6.671407   -1.62  -1.41
iter:   6 02:03:15     6.673851   -2.39  -1.84
iter:   7 02:03:28     6.682742c  -3.33  -1.90
iter:   8 02:03:41     6.672932c  -2.85  -2.00
iter:   9 02:03:53     6.675887c  -3.18  -2.27
iter:  10 02:04:06     6.674683c  -3.94  -2.59
iter:  11 02:04:19     6.676358c  -3.82  -2.61
iter:  12 02:04:31     6.676342c  -4.84  -3.04
iter:  13 02:04:44     6.676386c  -5.45  -3.13
iter:  14 02:04:57     6.676494c  -5.57  -3.20
iter:  15 02:05:10     6.676481c  -5.80  -3.31
iter:  16 02:05:23     6.676460c  -6.13  -3.45
iter:  17 02:05:37     6.676480c  -6.67  -3.51
iter:  18 02:05:50     6.676476c  -6.19  -3.57
iter:  19 02:06:04     6.676510c  -6.49  -3.82
iter:  20 02:06:18     6.676535c  -7.23  -3.93
iter:  21 02:06:31     6.676539c  -7.73c -4.02c

Converged after 21 iterations.

Dipole moment: (-0.000000, 0.000000, -0.187718) |e|*Ang

Energy contributions relative to reference atoms: (reference = -1616706.077045)

Kinetic:       +529.983279
Potential:     -446.947600
External:        +0.000000
XC:             -74.760927
Entropy (-ST):   -0.076525
Local:           -1.559950
SIC:             +0.000000
--------------------------
Free energy:     +6.638277
Extrapolated:    +6.676539

Showing only first 2 kpts
 Kpt  Band  Eigenvalues  Occupancy
  0    24      7.44545    2.00000
  0    25      8.55669    1.71486
  0    26     10.18784    0.00000
  0    27     10.30354    0.00000

  1    24      7.44545    2.00000
  1    25      8.55669    1.71486
  1    26     10.18784    0.00000
  1    27     10.30354    0.00000


Fermi level: 8.73610

No gap
No difference between direct/indirect transitions

Forces in eV/Ang:
  0 W     0.00000    0.00000   77.58975
  1 W    -0.00000   -0.00000   77.58975
  2 Te    0.00000    0.00000    1.82425
  3 Te   -0.00000   -0.00000  -79.39525
  4 Te    0.00000    0.00000  -79.39525
  5 Te   -0.00000    0.00000    1.82425

System changes: positions 

Initializing position-dependent things.

Density initialized from wave functions
                  
                  
                  
                  
                  
       Te         
                  
                  
                  
                  
                  
                  
         Te       
                  
                  
                  
       W          
                  
                  
                  
                  
                  
                  
         W        
                  
         Te       
                  
                  
                  
                  
                  
                  
                  
                  
                  
       Te         
                  
                  
                  
                  

Positions:
   0 W      1.773000    1.023642    3.712952    ( 0.0000,  0.0000,  0.0000)
   1 W      1.773000   -1.023642   10.747952    ( 0.0000,  0.0000,  0.0000)
   2 Te     1.773000    1.023642   12.245495    ( 0.0000,  0.0000,  0.0000)
   3 Te     1.773000   -1.023642   -5.405900    ( 0.0000,  0.0000,  0.0000)
   4 Te     1.773000    1.023642    1.629100    ( 0.0000,  0.0000,  0.0000)
   5 Te     1.773000   -1.023642   19.280495    ( 0.0000,  0.0000,  0.0000)

Unit cell:
           periodic     x           y           z      points  spacing
  1. axis:    yes    1.773000   -3.070926    0.000000    21     0.1462
  2. axis:    yes    1.773000    3.070926    0.000000    21     0.1462
  3. axis:    yes    0.000000    0.000000   14.070000    80     0.1759

  Lengths:   3.546000   3.546000  14.070000
  Angles:   90.000000  90.000000 120.000000

Effective grid spacing dv^(1/3) = 0.1632

     iter     time        total  log10-change:
                         energy   eigst   dens
iter:   1 02:06:45   -46.119775   +0.47
iter:   2 02:06:58   -37.481701   -0.87  -0.70
iter:   3 02:07:12   -26.073361   -0.13  -0.81
iter:   4 02:07:27   -25.941031   -1.98  -1.41
iter:   5 02:07:41   -25.870898   -2.37  -1.52
iter:   6 02:07:54   -25.395928   -1.54  -1.59
iter:   7 02:08:07   -25.380233   -3.15  -1.96
iter:   8 02:08:20   -25.362884   -3.20  -2.01
iter:   9 02:08:33   -25.340009   -2.72  -2.12
iter:  10 02:08:46   -25.323191   -3.17  -2.15
iter:  11 02:08:59   -25.322703c  -3.81  -2.52
iter:  12 02:09:12   -25.322632c  -4.75  -2.61
iter:  13 02:09:25   -25.321775c  -3.80  -2.64
iter:  14 02:09:37   -25.321725c  -4.71  -2.94
iter:  15 02:09:50   -25.321880c  -5.32  -3.12
iter:  16 02:10:03   -25.321924c  -5.83  -3.16
iter:  17 02:10:15   -25.321519c  -5.38  -3.18
iter:  18 02:10:28   -25.321443c  -5.57  -3.35
iter:  19 02:10:40   -25.321491c  -5.97  -3.55
iter:  20 02:10:52   -25.321540c  -6.63  -3.74
iter:  21 02:11:04   -25.321520c  -6.76  -3.90
iter:  22 02:11:17   -25.321510c  -7.20  -4.21c
iter:  23 02:11:29   -25.321514c  -7.75c -4.36c

Converged after 23 iterations.

Dipole moment: (-0.000000, 0.000007, -0.601700) |e|*Ang

Energy contributions relative to reference atoms: (reference = -1616706.077045)

Kinetic:       +222.560993
Potential:     -194.649247
External:        +0.000000
XC:             -52.905011
Entropy (-ST):   -0.130260
Local:           -0.263119
SIC:             +0.000000
--------------------------
Free energy:    -25.386644
Extrapolated:   -25.321514

Showing only first 2 kpts
 Kpt  Band  Eigenvalues  Occupancy
  0    24      8.27071    1.89430
  0    25      9.25890    0.00183
  0    26     10.23831    0.00000
  0    27     10.33316    0.00000

  1    24      8.27071    1.89430
  1    25      9.25890    0.00183
  1    26     10.23831    0.00000
  1    27     10.33316    0.00000


Fermi level: 8.55930

No gap
No difference between direct/indirect transitions

Forces in eV/Ang:
  0 W     0.00000    0.00000   13.26888
  1 W     0.00000   -0.00000   13.26819
  2 Te    0.00000    0.00000    3.22632
  3 Te   -0.00000   -0.00000  -16.49742
  4 Te    0.00000    0.00000  -16.49783
  5 Te   -0.00000   -0.00000    3.22680

System changes: positions 

Initializing position-dependent things.

Density initialized from wave functions
                  
                  
                  
                  
                  
       Te         
                  
                  
                  
                  
                  
                  
         Te       
                  
                  
                  
       W          
                  
                  
                  
                  
                  
                  
         W        
                  
         Te       
                  
                  
                  
                  
                  
                  
                  
                  
                  
       Te         
                  
                  
                  
                  

Positions:
   0 W      1.773000    1.023642    3.734244    ( 0.0000,  0.0000,  0.0000)
   1 W      1.773000   -1.023642   10.769244    ( 0.0000,  0.0000,  0.0000)
   2 Te     1.773000    1.023642   12.297416    ( 0.0000,  0.0000,  0.0000)
   3 Te     1.773000   -1.023642   -5.479209    ( 0.0000,  0.0000,  0.0000)
   4 Te     1.773000    1.023642    1.555791    ( 0.0000,  0.0000,  0.0000)
   5 Te     1.773000   -1.023642   19.332416    ( 0.0000,  0.0000,  0.0000)

Unit cell:
           periodic     x           y           z      points  spacing
  1. axis:    yes    1.773000   -3.070926    0.000000    21     0.1462
  2. axis:    yes    1.773000    3.070926    0.000000    21     0.1462
  3. axis:    yes    0.000000    0.000000   14.070000    80     0.1759

  Lengths:   3.546000   3.546000  14.070000
  Angles:   90.000000  90.000000 120.000000

Effective grid spacing dv^(1/3) = 0.1632

     iter     time        total  log10-change:
                         energy   eigst   dens
iter:   1 02:11:42   -28.244326   -1.31
iter:   2 02:11:55   -28.124924   -2.64  -1.61
iter:   3 02:12:07   -28.005822   -2.30  -1.74
iter:   4 02:12:20   -28.000770   -3.62  -2.15
iter:   5 02:12:32   -27.993380c  -3.87  -2.21
iter:   6 02:12:44   -27.989485c  -3.69  -2.34
iter:   7 02:12:56   -27.984893c  -3.75  -2.45
iter:   8 02:13:08   -27.984606c  -4.81  -2.88
iter:   9 02:13:21   -27.984569c  -4.80  -2.94
iter:  10 02:13:34   -27.984305c  -5.18  -3.12
iter:  11 02:13:47   -27.984367c  -6.06  -3.42
iter:  12 02:14:00   -27.984367c  -7.06  -3.46
iter:  13 02:14:14   -27.984354c  -7.40c -3.47
iter:  14 02:14:27   -27.984292c  -6.58  -3.51
iter:  15 02:14:39   -27.984320c  -6.69  -3.63
iter:  16 02:14:52   -27.984313c  -6.33  -3.69
iter:  17 02:15:04   -27.984310c  -6.72  -4.04c
iter:  18 02:15:17   -27.984306c  -7.76c -4.29c

Converged after 18 iterations.

Dipole moment: (-0.000000, -0.000009, -0.755348) |e|*Ang

Energy contributions relative to reference atoms: (reference = -1616706.077045)

Kinetic:       +172.977922
Potential:     -152.534734
External:        +0.000000
XC:             -48.287090
Entropy (-ST):   -0.141741
Local:           -0.069533
SIC:             +0.000000
--------------------------
Free energy:    -28.055176
Extrapolated:   -27.984306

Showing only first 2 kpts
 Kpt  Band  Eigenvalues  Occupancy
  0    24      8.27280    1.80325
  0    25      9.26225    0.00092
  0    26     10.17482    0.00000
  0    27     10.27242    0.00000

  1    24      8.27280    1.80325
  1    25      9.26225    0.00092
  1    26     10.17482    0.00000
  1    27     10.27242    0.00000


Fermi level: 8.49434

No gap
No difference between direct/indirect transitions

Forces in eV/Ang:
  0 W     0.00000    0.00000    7.76607
  1 W    -0.00000   -0.00000    7.76658
  2 Te    0.00000    0.00000    2.45571
  3 Te    0.00000   -0.00000  -10.22897
  4 Te    0.00000   -0.00000  -10.22873
  5 Te   -0.00000   -0.00000    2.45515

System changes: positions 

Initializing position-dependent things.

Density initialized from wave functions
                  
                  
                  
                  
                  
       Te         
                  
                  
                  
                  
                  
                  
                  
         Te       
                  
                  
       W          
                  
                  
                  
                  
                  
                  
         W        
                  
                  
         Te       
                  
                  
                  
                  
                  
                  
                  
                  
                  
       Te         
                  
                  
                  
                  

Positions:
   0 W      1.773000    1.023642    3.759881    ( 0.0000,  0.0000,  0.0000)
   1 W      1.773000   -1.023642   10.794881    ( 0.0000,  0.0000,  0.0000)
   2 Te     1.773000    1.023642   12.402335    ( 0.0000,  0.0000,  0.0000)
   3 Te     1.773000   -1.023642   -5.610136    ( 0.0000,  0.0000,  0.0000)
   4 Te     1.773000    1.023642    1.424864    ( 0.0000,  0.0000,  0.0000)
   5 Te     1.773000   -1.023642   19.437335    ( 0.0000,  0.0000,  0.0000)

Unit cell:
           periodic     x           y           z      points  spacing
  1. axis:    yes    1.773000   -3.070926    0.000000    21     0.1462
  2. axis:    yes    1.773000    3.070926    0.000000    21     0.1462
  3. axis:    yes    0.000000    0.000000   14.070000    80     0.1759

  Lengths:   3.546000   3.546000  14.070000
  Angles:   90.000000  90.000000 120.000000

Effective grid spacing dv^(1/3) = 0.1632

     iter     time        total  log10-change:
                         energy   eigst   dens
iter:   1 02:15:31   -30.701736   -0.95
iter:   2 02:15:43   -30.513451   -2.37  -1.48
iter:   3 02:15:56   -30.305536   -2.11  -1.60
iter:   4 02:16:08   -30.296696   -3.30  -1.99
iter:   5 02:16:21   -30.283603c  -3.74  -2.03
iter:   6 02:16:34   -30.275644c  -3.43  -2.15
iter:   7 02:16:46   -30.267100c  -3.37  -2.27
iter:   8 02:16:59   -30.266893c  -4.50  -2.69
iter:   9 02:17:11   -30.266524c  -4.84  -2.74
iter:  10 02:17:24   -30.266281c  -4.92  -2.88
iter:  11 02:17:37   -30.266187c  -5.49  -3.06
iter:  12 02:17:50   -30.266220c  -5.90  -3.30
iter:  13 02:18:02   -30.266222c  -6.88  -3.32
iter:  14 02:18:15   -30.266147c  -6.06  -3.33
iter:  15 02:18:28   -30.266205c  -5.76  -3.54
iter:  16 02:18:40   -30.266159c  -6.12  -3.66
iter:  17 02:18:53   -30.266165c  -7.74c -4.09c

Converged after 17 iterations.

Dipole moment: (-0.000000, 0.000004, -1.134753) |e|*Ang

Energy contributions relative to reference atoms: (reference = -1616706.077045)

Kinetic:       +108.436485
Potential:      -96.975030
External:        +0.000000
XC:             -41.753264
Entropy (-ST):   -0.164236
Local:           +0.107762
SIC:             +0.000000
--------------------------
Free energy:    -30.348283
Extrapolated:   -30.266165

Showing only first 2 kpts
 Kpt  Band  Eigenvalues  Occupancy
  0    24      8.24105    1.71931
  0    25      9.22236    0.00067
  0    26     10.02470    0.00000
  0    27     10.12832    0.00000

  1    24      8.24105    1.71931
  1    25      9.22236    0.00067
  1    26     10.02470    0.00000
  1    27     10.12832    0.00000


Fermi level: 8.42229

No gap
No difference between direct/indirect transitions

Forces in eV/Ang:
  0 W     0.00000   -0.00000    2.80076
  1 W    -0.00000    0.00000    2.80047
  2 Te    0.00000   -0.00000    0.65423
  3 Te   -0.00000    0.00000   -3.46067
  4 Te    0.00000    0.00000   -3.46069
  5 Te   -0.00000   -0.00000    0.65446

System changes: positions 

Initializing position-dependent things.

Density initialized from wave functions
                  
                  
                  
                  
                  
       Te         
                  
                  
                  
                  
                  
                  
         Te       
                  
                  
                  
       W          
                  
                  
                  
                  
                  
                  
         W        
                  
                  
         Te       
                  
                  
                  
                  
                  
                  
                  
                  
                  
       Te         
                  
                  
                  
                  

Positions:
   0 W      1.773000    1.023642    3.774789    ( 0.0000,  0.0000,  0.0000)
   1 W      1.773000   -1.023642   10.809789    ( 0.0000,  0.0000,  0.0000)
   2 Te     1.773000    1.023642   12.450982    ( 0.0000,  0.0000,  0.0000)
   3 Te     1.773000   -1.023642   -5.673950    ( 0.0000,  0.0000,  0.0000)
   4 Te     1.773000    1.023642    1.361050    ( 0.0000,  0.0000,  0.0000)
   5 Te     1.773000   -1.023642   19.485982    ( 0.0000,  0.0000,  0.0000)

Unit cell:
           periodic     x           y           z      points  spacing
  1. axis:    yes    1.773000   -3.070926    0.000000    21     0.1462
  2. axis:    yes    1.773000    3.070926    0.000000    21     0.1462
  3. axis:    yes    0.000000    0.000000   14.070000    80     0.1759

  Lengths:   3.546000   3.546000  14.070000
  Angles:   90.000000  90.000000 120.000000

Effective grid spacing dv^(1/3) = 0.1632

     iter     time        total  log10-change:
                         energy   eigst   dens
iter:   1 02:19:07   -30.727450   -1.62
iter:   2 02:19:20   -30.684990   -3.09  -1.80
iter:   3 02:19:33   -30.637209   -2.81  -1.92
iter:   4 02:19:45   -30.635296   -3.88  -2.35
iter:   5 02:19:58   -30.633504c  -4.53  -2.40
iter:   6 02:20:11   -30.631844c  -3.87  -2.49
iter:   7 02:20:24   -30.630266c  -4.11  -2.60
iter:   8 02:20:37   -30.630243c  -5.33  -3.03
iter:   9 02:20:51   -30.630192c  -5.33  -3.07
iter:  10 02:21:04   -30.630220c  -5.53  -3.27
iter:  11 02:21:18   -30.630218c  -6.64  -3.55
iter:  12 02:21:32   -30.630221c  -6.69  -3.60
iter:  13 02:21:46   -30.630230c  -7.14  -3.61
iter:  14 02:21:59   -30.630228c  -7.31  -3.64
iter:  15 02:22:12   -30.630196c  -6.68  -3.72
iter:  16 02:22:24   -30.630188c  -6.60  -3.85
iter:  17 02:22:37   -30.630184c  -7.70c -4.27c

Converged after 17 iterations.

Dipole moment: (-0.000000, -0.000014, -1.408188) |e|*Ang

Energy contributions relative to reference atoms: (reference = -1616706.077045)

Kinetic:        +85.895859
Potential:      -77.235929
External:        +0.000000
XC:             -39.351525
Entropy (-ST):   -0.186311
Local:           +0.154567
SIC:             +0.000000
--------------------------
Free energy:    -30.723339
Extrapolated:   -30.630184

Showing only first 2 kpts
 Kpt  Band  Eigenvalues  Occupancy
  0    24      8.25889    1.64963
  0    25      9.23163    0.00056
  0    26      9.93088    0.00000
  0    27     10.03502    0.00000

  1    24      8.25889    1.64963
  1    25      9.23163    0.00056
  1    26      9.93088    0.00000
  1    27     10.03502    0.00000


Fermi level: 8.41382

No gap
No difference between direct/indirect transitions

Forces in eV/Ang:
  0 W     0.00000    0.00000    1.46680
  1 W    -0.00000   -0.00000    1.46905
  2 Te    0.00000    0.00000   -0.23663
  3 Te   -0.00000   -0.00000   -1.23336
  4 Te    0.00000    0.00000   -1.23195
  5 Te   -0.00000    0.00000   -0.23694

System changes: positions 

Initializing position-dependent things.

Density initialized from wave functions
                  
                  
                  
                  
                  
       Te         
                  
                  
                  
                  
                  
                  
         Te       
                  
                  
                  
       W          
                  
                  
                  
                  
                  
                  
         W        
                  
                  
         Te       
                  
                  
                  
                  
                  
                  
                  
                  
                  
       Te         
                  
                  
                  
                  

Positions:
   0 W      1.773000    1.023642    3.787570    ( 0.0000,  0.0000,  0.0000)
   1 W      1.773000   -1.023642   10.822570    ( 0.0000,  0.0000,  0.0000)
   2 Te     1.773000    1.023642   12.464849    ( 0.0000,  0.0000,  0.0000)
   3 Te     1.773000   -1.023642   -5.700716    ( 0.0000,  0.0000,  0.0000)
   4 Te     1.773000    1.023642    1.334284    ( 0.0000,  0.0000,  0.0000)
   5 Te     1.773000   -1.023642   19.499849    ( 0.0000,  0.0000,  0.0000)

Unit cell:
           periodic     x           y           z      points  spacing
  1. axis:    yes    1.773000   -3.070926    0.000000    21     0.1462
  2. axis:    yes    1.773000    3.070926    0.000000    21     0.1462
  3. axis:    yes    0.000000    0.000000   14.070000    80     0.1759

  Lengths:   3.546000   3.546000  14.070000
  Angles:   90.000000  90.000000 120.000000

Effective grid spacing dv^(1/3) = 0.1632

     iter     time        total  log10-change:
                         energy   eigst   dens
iter:   1 02:22:52   -30.735630   -2.22
iter:   2 02:23:05   -30.713541   -3.66  -1.96
iter:   3 02:23:19   -30.703851   -3.50  -2.08
iter:   4 02:23:33   -30.689240c  -3.66  -2.17
iter:   5 02:23:47   -30.688552c  -4.45  -2.68
iter:   6 02:24:00   -30.688140c  -4.76  -2.83
iter:   7 02:24:14   -30.687805c  -5.18  -2.92
iter:   8 02:24:27   -30.687697c  -5.33  -3.19
iter:   9 02:24:40   -30.687703c  -6.61  -3.37
iter:  10 02:24:53   -30.687708c  -6.50  -3.41
iter:  11 02:25:07   -30.687735c  -5.90  -3.51
iter:  12 02:25:21   -30.687720c  -7.20  -3.83
iter:  13 02:25:35   -30.687714c  -7.69c -3.89
iter:  14 02:25:48   -30.687708c  -7.27  -3.92
iter:  15 02:26:02   -30.687705c  -7.86c -4.29c

Converged after 15 iterations.

Dipole moment: (-0.000000, 0.000012, -1.567874) |e|*Ang

Energy contributions relative to reference atoms: (reference = -1616706.077045)

Kinetic:        +78.570876
Potential:      -70.714656
External:        +0.000000
XC:             -38.605199
Entropy (-ST):   -0.198935
Local:           +0.160742
SIC:             +0.000000
--------------------------
Free energy:    -30.787172
Extrapolated:   -30.687705

Showing only first 2 kpts
 Kpt  Band  Eigenvalues  Occupancy
  0    24      8.29394    1.54023
  0    25      9.26433    0.00041
  0    26      9.89694    0.00000
  0    27     10.00020    0.00000

  1    24      8.29394    1.54023
  1    25      9.26433    0.00041
  1    26      9.89694    0.00000
  1    27     10.00020    0.00000


Fermi level: 8.41484

No gap
No difference between direct/indirect transitions

Forces in eV/Ang:
  0 W     0.00000    0.00000    0.86921
  1 W    -0.00000    0.00000    0.86849
  2 Te    0.00000    0.00000   -0.45889
  3 Te    0.00000   -0.00000   -0.41537
  4 Te    0.00000    0.00000   -0.41547
  5 Te   -0.00000    0.00000   -0.45839

System changes: positions 

Initializing position-dependent things.

Density initialized from wave functions
                  
                  
                  
                  
                  
       Te         
                  
                  
                  
                  
                  
                  
         Te       
                  
                  
                  
       W          
                  
                  
                  
                  
                  
                  
         W        
                  
                  
         Te       
                  
                  
                  
                  
                  
                  
                  
                  
                  
       Te         
                  
                  
                  
                  

Positions:
   0 W      1.773000    1.023642    3.799393    ( 0.0000,  0.0000,  0.0000)
   1 W      1.773000   -1.023642   10.834393    ( 0.0000,  0.0000,  0.0000)
   2 Te     1.773000    1.023642   12.463869    ( 0.0000,  0.0000,  0.0000)
   3 Te     1.773000   -1.023642   -5.711726    ( 0.0000,  0.0000,  0.0000)
   4 Te     1.773000    1.023642    1.323274    ( 0.0000,  0.0000,  0.0000)
   5 Te     1.773000   -1.023642   19.498869    ( 0.0000,  0.0000,  0.0000)

Unit cell:
           periodic     x           y           z      points  spacing
  1. axis:    yes    1.773000   -3.070926    0.000000    21     0.1462
  2. axis:    yes    1.773000    3.070926    0.000000    21     0.1462
  3. axis:    yes    0.000000    0.000000   14.070000    80     0.1759

  Lengths:   3.546000   3.546000  14.070000
  Angles:   90.000000  90.000000 120.000000

Effective grid spacing dv^(1/3) = 0.1632

     iter     time        total  log10-change:
                         energy   eigst   dens
iter:   1 02:26:17   -30.743336   -2.51
iter:   2 02:26:31   -30.724655   -3.96  -2.02
iter:   3 02:26:47   -30.710115   -3.43  -2.17
iter:   4 02:27:02   -30.706967c  -4.33  -2.45
iter:   5 02:27:16   -30.706209c  -4.52  -2.75
iter:   6 02:27:29   -30.705971c  -5.04  -3.03
iter:   7 02:27:43   -30.705861c  -5.79  -3.12
iter:   8 02:27:57   -30.705821c  -5.85  -3.39
iter:   9 02:28:10   -30.705820c  -6.85  -3.60
iter:  10 02:28:24   -30.705815c  -6.91  -3.63
iter:  11 02:28:38   -30.705815c  -6.75  -3.77
iter:  12 02:28:51   -30.705805c  -7.32  -3.81
iter:  13 02:29:04   -30.705803c  -7.42c -4.12c

Converged after 13 iterations.

Dipole moment: (-0.000000, 0.000001, -1.664342) |e|*Ang

Energy contributions relative to reference atoms: (reference = -1616706.077045)

Kinetic:        +76.580987
Potential:      -68.887425
External:        +0.000000
XC:             -38.459772
Entropy (-ST):   -0.205953
Local:           +0.163383
SIC:             +0.000000
--------------------------
Free energy:    -30.808780
Extrapolated:   -30.705803

Showing only first 2 kpts
 Kpt  Band  Eigenvalues  Occupancy
  0    24      8.33264    1.38570
  0    25      9.30431    0.00027
  0    26      9.89385    0.00000
  0    27      9.99643    0.00000

  1    24      8.33264    1.38570
  1    25      9.30431    0.00027
  1    26      9.89385    0.00000
  1    27      9.99643    0.00000


Fermi level: 8.41399

No gap
No difference between direct/indirect transitions

Forces in eV/Ang:
  0 W     0.00000    0.00000    0.45418
  1 W    -0.00000   -0.00000    0.45437
  2 Te    0.00000    0.00000   -0.38399
  3 Te   -0.00000   -0.00000   -0.06838
  4 Te    0.00000    0.00000   -0.06868
  5 Te    0.00000    0.00000   -0.38441

System changes: positions 

Initializing position-dependent things.

Density initialized from wave functions
                  
                  
                  
                  
                  
       Te         
                  
                  
                  
                  
                  
                  
         Te       
                  
                  
                  
       W          
                  
                  
                  
                  
                  
                  
         W        
                  
                  
         Te       
                  
                  
                  
                  
                  
                  
                  
                  
                  
       Te         
                  
                  
                  
                  

Positions:
   0 W      1.773000    1.023642    3.810782    ( 0.0000,  0.0000,  0.0000)
   1 W      1.773000   -1.023642   10.845782    ( 0.0000,  0.0000,  0.0000)
   2 Te     1.773000    1.023642   12.455859    ( 0.0000,  0.0000,  0.0000)
   3 Te     1.773000   -1.023642   -5.715141    ( 0.0000,  0.0000,  0.0000)
   4 Te     1.773000    1.023642    1.319859    ( 0.0000,  0.0000,  0.0000)
   5 Te     1.773000   -1.023642   19.490859    ( 0.0000,  0.0000,  0.0000)

Unit cell:
           periodic     x           y           z      points  spacing
  1. axis:    yes    1.773000   -3.070926    0.000000    21     0.1462
  2. axis:    yes    1.773000    3.070926    0.000000    21     0.1462
  3. axis:    yes    0.000000    0.000000   14.070000    80     0.1759

  Lengths:   3.546000   3.546000  14.070000
  Angles:   90.000000  90.000000 120.000000

Effective grid spacing dv^(1/3) = 0.1632

     iter     time        total  log10-change:
                         energy   eigst   dens
iter:   1 02:29:19   -30.747851   -2.56
iter:   2 02:29:32   -30.730547   -4.03  -2.04
iter:   3 02:29:45   -30.715719   -3.51  -2.21
iter:   4 02:29:58   -30.714640c  -4.10  -2.69
iter:   5 02:30:12   -30.714408c  -5.16  -2.96
iter:   6 02:30:25   -30.714239c  -5.44  -3.12
iter:   7 02:30:39   -30.714191c  -5.34  -3.17
iter:   8 02:30:52   -30.714181c  -6.20  -3.57
iter:   9 02:31:05   -30.714169c  -7.23  -3.62
iter:  10 02:31:18   -30.714128c  -6.41  -3.67
iter:  11 02:31:32   -30.714122c  -6.78  -4.05c
iter:  12 02:31:45   -30.714121c  -7.87c -4.19c

Converged after 12 iterations.

Dipole moment: (-0.000000, -0.000004, -1.722873) |e|*Ang

Energy contributions relative to reference atoms: (reference = -1616706.077045)

Kinetic:        +77.027208
Potential:      -69.204015
External:        +0.000000
XC:             -38.590692
Entropy (-ST):   -0.210149
Local:           +0.158451
SIC:             +0.000000
--------------------------
Free energy:    -30.819196
Extrapolated:   -30.714121

Showing only first 2 kpts
 Kpt  Band  Eigenvalues  Occupancy
  0    24      8.37461    1.18299
  0    25      9.34932    0.00017
  0    26      9.90634    0.00000
  0    27     10.00852    0.00000

  1    24      8.37461    1.18299
  1    25      9.34932    0.00017
  1    26      9.90634    0.00000
  1    27     10.00852    0.00000


Fermi level: 8.41163

No gap
No difference between direct/indirect transitions

Forces in eV/Ang:
  0 W     0.00000    0.00000    0.08550
  1 W    -0.00000    0.00000    0.08547
  2 Te    0.00000    0.00000   -0.17094
  3 Te   -0.00000    0.00000    0.09224
  4 Te    0.00000    0.00000    0.09141
  5 Te   -0.00000    0.00000   -0.17173

System changes: positions 

Initializing position-dependent things.

Density initialized from wave functions
                  
                  
                  
                  
                  
       Te         
                  
                  
                  
                  
                  
                  
         Te       
                  
                  
                  
       W          
                  
                  
                  
                  
                  
                  
         W        
                  
                  
         Te       
                  
                  
                  
                  
                  
                  
                  
                  
                  
       Te         
                  
                  
                  
                  

Positions:
   0 W      1.773000    1.023642    3.814078    ( 0.0000,  0.0000,  0.0000)
   1 W      1.773000   -1.023642   10.849078    ( 0.0000,  0.0000,  0.0000)
   2 Te     1.773000    1.023642   12.450052    ( 0.0000,  0.0000,  0.0000)
   3 Te     1.773000   -1.023642   -5.712527    ( 0.0000,  0.0000,  0.0000)
   4 Te     1.773000    1.023642    1.322473    ( 0.0000,  0.0000,  0.0000)
   5 Te     1.773000   -1.023642   19.485052    ( 0.0000,  0.0000,  0.0000)

Unit cell:
           periodic     x           y           z      points  spacing
  1. axis:    yes    1.773000   -3.070926    0.000000    21     0.1462
  2. axis:    yes    1.773000    3.070926    0.000000    21     0.1462
  3. axis:    yes    0.000000    0.000000   14.070000    80     0.1759

  Lengths:   3.546000   3.546000  14.070000
  Angles:   90.000000  90.000000 120.000000

Effective grid spacing dv^(1/3) = 0.1632

     iter     time        total  log10-change:
                         energy   eigst   dens
iter:   1 02:31:59   -30.719137   -3.45
iter:   2 02:32:12   -30.717474   -4.90  -2.56
iter:   3 02:32:26   -30.716904c  -4.84  -2.71
iter:   4 02:32:39   -30.715908c  -5.06  -2.77
iter:   5 02:32:52   -30.715794c  -5.19  -3.22
iter:   6 02:33:05   -30.715768c  -6.02  -3.51
iter:   7 02:33:19   -30.715769c  -6.44  -3.58
iter:   8 02:33:32   -30.715777c  -6.33  -3.79
iter:   9 02:33:45   -30.715778c  -7.50c -4.06c

Converged after 9 iterations.

Dipole moment: (0.000000, -0.000014, -1.719647) |e|*Ang

Energy contributions relative to reference atoms: (reference = -1616706.077045)

Kinetic:        +78.354289
Potential:      -70.338569
External:        +0.000000
XC:             -38.760708
Entropy (-ST):   -0.210270
Local:           +0.134346
SIC:             +0.000000
--------------------------
Free energy:    -30.820913
Extrapolated:   -30.715778

Showing only first 2 kpts
 Kpt  Band  Eigenvalues  Occupancy
  0    24      8.39025    1.09865
  0    25      9.36601    0.00014
  0    26      9.91761    0.00000
  0    27     10.01970    0.00000

  1    24      8.39025    1.09865
  1    25      9.36601    0.00014
  1    26      9.91761    0.00000
  1    27     10.01970    0.00000


Fermi level: 8.41005

No gap
No difference between direct/indirect transitions

Forces in eV/Ang:
  0 W     0.00000    0.00000   -0.02707
  1 W    -0.00000   -0.00000   -0.02605
  2 Te    0.00000    0.00000   -0.02685
  3 Te   -0.00000    0.00000    0.03950
  4 Te    0.00000    0.00000    0.03975
  5 Te   -0.00000   -0.00000   -0.02707

Timing:                                      incl.     excl.
-------------------------------------------------------------------
Density initialized from wave functions:     6.474     6.458   0.3% |
 Symmetrize density:                         0.017     0.017   0.0% |
Forces:                                      6.415     6.415   0.3% |
Hamiltonian:                                 1.525     0.007   0.0% |
 Atomic:                                     1.019     0.005   0.0% |
  XC Correction:                             1.014     1.014   0.0% |
 Calculate atomic Hamiltonians:              0.090     0.090   0.0% |
 Communicate:                                0.000     0.000   0.0% |
 Initialize Hamiltonian:                     0.000     0.000   0.0% |
 Poisson:                                    0.005     0.005   0.0% |
 XC 3D grid:                                 0.403     0.403   0.0% |
LCAO initialization:                        10.434     0.051   0.0% |
 LCAO eigensolver:                           4.072     0.002   0.0% |
  Calculate projections:                     0.005     0.005   0.0% |
  DenseAtomicCorrection:                     0.012     0.012   0.0% |
  Distribute overlap matrix:                 0.001     0.001   0.0% |
  Orbital Layouts:                           2.119     2.119   0.1% |
  Potential matrix:                          0.226     0.226   0.0% |
  Sum over cells:                            1.707     1.707   0.1% |
 LCAO to grid:                               5.987     5.987   0.3% |
 Set positions (LCAO WFS):                   0.324     0.049   0.0% |
  Basic WFS set positions:                   0.000     0.000   0.0% |
  Basis functions set positions:             0.000     0.000   0.0% |
  P tci:                                     0.164     0.164   0.0% |
  ST tci:                                    0.105     0.105   0.0% |
  mktci:                                     0.004     0.004   0.0% |
PWDescriptor:                                0.041     0.041   0.0% |
Redistribute:                                0.045     0.045   0.0% |
SCF-cycle:                                1888.283     1.983   0.1% |
 Davidson:                                1732.792   193.583   8.8% |---|
  Apply H:                                 344.594   340.681  15.6% |-----|
   HMM T:                                    3.912     3.912   0.2% |
  Subspace diag:                           387.103     0.525   0.0% |
   calc_h_matrix:                          360.550    14.648   0.7% |
    Apply H:                               345.902   341.736  15.6% |-----|
     HMM T:                                  4.166     4.166   0.2% |
   diagonalize:                              2.989     2.989   0.1% |
   rotate_psi:                              23.039    23.039   1.1% |
  calc. matrices:                          681.383    75.325   3.4% ||
   Apply H:                                606.058   598.374  27.3% |----------|
    HMM T:                                   7.685     7.685   0.4% |
  diagonalize:                              84.970    84.970   3.9% |-|
  rotate_psi:                               41.159    41.159   1.9% ||
 Density:                                  125.424     0.002   0.0% |
  Atomic density matrices:                   0.557     0.557   0.0% |
  Mix:                                      12.450    12.450   0.6% |
  Multipole moments:                         0.012     0.012   0.0% |
  Pseudo density:                          112.404   112.118   5.1% |-|
   Symmetrize density:                       0.286     0.286   0.0% |
 Hamiltonian:                               24.496     0.138   0.0% |
  Atomic:                                   15.600     0.075   0.0% |
   XC Correction:                           15.525    15.525   0.7% |
  Calculate atomic Hamiltonians:             1.505     1.505   0.1% |
  Communicate:                               0.001     0.001   0.0% |
  Poisson:                                   0.094     0.094   0.0% |
  XC 3D grid:                                7.160     7.160   0.3% |
 Orthonormalize:                             3.588     0.032   0.0% |
  calc_s_matrix:                             0.481     0.481   0.0% |
  inverse-cholesky:                          0.059     0.059   0.0% |
  projections:                               2.284     2.284   0.1% |
  rotate_psi_s:                              0.731     0.731   0.0% |
Set symmetry:                                0.004     0.004   0.0% |
Other:                                     276.370   276.370  12.6% |----|
-------------------------------------------------------------------
Total:                                              2189.592 100.0%

Memory usage: 797.87 MiB
Date: Mon Apr  7 02:38:20 2025
