
  ___ ___ ___ _ _ _  
 |   |   |_  | | | | 
 | | | | | . | | | | 
 |__ |  _|___|_____|  25.1.0
 |___|_|             

User:   georgios-vourvachakis@georgios-vourvachakis-82K2
Date:   Mon Apr  7 01:29:59 2025
Arch:   x86_64
Pid:    589600
CWD:    /home/georgios-vourvachakis/Desktop/DFT_codes
Python: 3.12.3
gpaw:   /home/georgios-vourvachakis/Desktop/DFT_codes/.venv/lib/python3.12/site-packages/gpaw
_gpaw:  /home/georgios-vourvachakis/Desktop/DFT_codes/.venv/lib/python3.12/site-packages/
        _gpaw.cpython-312-x86_64-linux-gnu.so
ase:    /home/georgios-vourvachakis/Desktop/DFT_codes/.venv/lib/python3.12/site-packages/ase (version 3.24.0)
numpy:  /home/georgios-vourvachakis/Desktop/DFT_codes/.venv/lib/python3.12/site-packages/numpy (version 2.2.3)
scipy:  /home/georgios-vourvachakis/Desktop/DFT_codes/.venv/lib/python3.12/site-packages/scipy (version 1.15.1)
libxc:  5.2.3
units:  Angstrom and eV
cores: 1
OpenMP: False
OMP_NUM_THREADS: 1

Input parameters:
  kpts: [10 10  2]
  mode: {ecut: 600.0,
         name: pw}
  xc: PBE

System changes: positions, numbers, cell, pbc, initial_charges, initial_magmoms 

Initialize ...

species:
  W:
    name: Tungsten
    id: 3ed563b7d19992259c4d7db283f2ff78
    Z: 74.0
    valence: 14
    core: 60
    charge: 0.0
    file: /home/georgios-vourvachakis/Desktop/DFT_codes/gpaw_datasets/gpaw-setups-0.9.20000/W.PBE.gz
    compensation charges: {type: gauss,
                           rc: 0.40,
                           lmax: 2}
    cutoffs: {filter: 2.36,
              core: 3.02}
    projectors:
      #              energy  rcut
      - 5s(2.00)   -78.830   1.344
      - 6s(2.00)    -5.697   1.344
      - 5p(6.00)   -43.233   1.355
      - 6p(0.00)    -1.367   1.355
      - 5d(4.00)    -4.494   1.228
      -  d          22.717   1.228
  
    # Using partial waves for W as LCAO basis

  Te:
    name: Tellurium
    id: e44b9ef4772d7e5a1c6a47e6d6496588
    Z: 52.0
    valence: 6
    core: 46
    charge: 0.0
    file: /home/georgios-vourvachakis/Desktop/DFT_codes/gpaw_datasets/gpaw-setups-0.9.20000/Te.PBE.gz
    compensation charges: {type: gauss,
                           rc: 0.36,
                           lmax: 2}
    cutoffs: {filter: 2.09,
              core: 3.17}
    projectors:
      #              energy  rcut
      - 5s(2.00)   -15.089   1.180
      - 5p(4.00)    -5.955   1.196
      -  s          12.123   1.180
      -  p          21.256   1.196
      -  d           0.000   1.238
  
    # Using partial waves for Te as LCAO basis

Reference energy: -1616706.077045  # eV

Spin-paired calculation

Convergence criteria:
 Maximum [total energy] change in last 3 cyles: 0.0005 eV / valence electron
 Maximum integral of absolute [dens]ity change: 0.0001 electrons / valence electron
 Maximum integral of absolute [eigenst]ate change: 4e-08 eV^2 / valence electron
 Maximum number of scf [iter]ations: 333
 (Square brackets indicate name in SCF output, whereas a 'c' in
 the SCF output indicates the quantity has converged.)

Symmetries present (total): 6

  ( 1  1  0)  ( 1  0  0)  ( 0  1  0)  ( 0 -1  0)  (-1  0  0)  (-1 -1  0)
  ( 0 -1  0)  ( 0  1  0)  (-1 -1  0)  (-1  0  0)  ( 1  1  0)  ( 1  0  0)
  ( 0  0  1)  ( 0  0  1)  ( 0  0  1)  ( 0  0  1)  ( 0  0  1)  ( 0  0  1)
Note: your k-points are not as symmetric as your crystal!

200 k-points: 10 x 10 x 2 Monkhorst-Pack grid
55 k-points in the irreducible part of the Brillouin zone
       k-points in crystal coordinates                weights
   0:     0.05000000   -0.05000000   -0.25000000          2/200
   1:     0.05000000   -0.05000000    0.25000000          2/200
   2:     0.05000000    0.05000000    0.25000000          4/200
   3:     0.15000000   -0.15000000   -0.25000000          2/200
   4:     0.15000000   -0.15000000    0.25000000          2/200
   5:     0.15000000   -0.05000000   -0.25000000          4/200
   6:     0.15000000   -0.05000000    0.25000000          4/200
   7:     0.15000000    0.05000000   -0.25000000          4/200
   8:     0.15000000    0.05000000    0.25000000          4/200
   9:     0.15000000    0.15000000    0.25000000          4/200
          ...
  54:     0.45000000    0.45000000    0.25000000          4/200

Wave functions: Plane wave expansion
  Cutoff energy: 600.000 eV
  Number of coefficients (min, max): 5051, 5120
  Pulay-stress correction: 0.000000 eV/Ang^3 (de/decut=0.000000)
  Using Numpy's FFT
  ScaLapack parameters: grid=1x1, blocksize=None
  Wavefunction extrapolation:
    Improved wavefunction reuse through dual PAW basis 

Occupation numbers: Fermi-Dirac:
  width: 0.1000  # eV
 

Eigensolver
   Davidson(niter=2) 

Densities:
  Coarse grid: 21*21*80 grid
  Fine grid: 42*42*160 grid
  Total Charge: 0.000000 

Density mixing:
  Method: separate
  Backend: pulay
  Linear mixing parameter: 0.05
  old densities: 5
  Damping of long wavelength oscillations: 50 

Hamiltonian:
  XC and Coulomb potentials evaluated on a 42*42*160 grid
  Using the PBE Exchange-Correlation functional
  External potential:
    NoExternalPotential
 

XC parameters: PBE with 2 nearest neighbor stencil

Memory estimate:
  Process memory now: 784.86 MiB
  Calculator: 230.32 MiB
    Density: 16.44 MiB
      Arrays: 7.00 MiB
      Localized functions: 6.75 MiB
      Mixer: 2.69 MiB
    Hamiltonian: 4.74 MiB
      Arrays: 4.58 MiB
      XC: 0.00 MiB
      Poisson: 0.00 MiB
      vbar: 0.16 MiB
    Wavefunctions: 209.14 MiB
      Arrays psit_nG: 154.69 MiB
      Eigensolver: 3.40 MiB
      Projections: 2.66 MiB
      Projectors: 42.75 MiB
      PW-descriptor: 5.64 MiB

Total number of cores used: 1

Number of atoms: 6
Number of atomic orbitals: 42
Number of bands in calculation: 36
Number of valence electrons: 52
Bands to converge: occupied

... initialized

Initializing position-dependent things.

Density initialized from atomic densities
Creating initial wave functions:
  36 bands from LCAO basis set

                  
                  
                  
                  
                  
       Te         
                  
                  
                  
                  
                  
                  
         Te       
                  
                  
                  
       W          
                  
                  
                  
                  
                  
                  
         W        
                  
         Te       
                  
                  
                  
                  
                  
                  
                  
                  
                  
       Te         
                  
                  
                  
                  

Positions:
   0 W      1.773000    1.023642    3.505000    ( 0.0000,  0.0000,  0.0000)
   1 W      1.773000   -1.023642   10.515000    ( 0.0000,  0.0000,  0.0000)
   2 Te     1.773000    1.023642   12.197400    ( 0.0000,  0.0000,  0.0000)
   3 Te     1.773000   -1.023642   -5.187400    ( 0.0000,  0.0000,  0.0000)
   4 Te     1.773000    1.023642    1.822600    ( 0.0000,  0.0000,  0.0000)
   5 Te     1.773000   -1.023642   19.207400    ( 0.0000,  0.0000,  0.0000)

Unit cell:
           periodic     x           y           z      points  spacing
  1. axis:    yes    1.773000   -3.070926    0.000000    21     0.1462
  2. axis:    yes    1.773000    3.070926    0.000000    21     0.1462
  3. axis:    yes    0.000000    0.000000   14.020000    80     0.1752

  Lengths:   3.546000   3.546000  14.020000
  Angles:   90.000000  90.000000 120.000000

Effective grid spacing dv^(1/3) = 0.1630

     iter     time        total  log10-change:
                         energy   eigst   dens
iter:   1 01:30:22     3.336194
iter:   2 01:30:35     5.438785   -0.67  -0.95
iter:   3 01:30:47     6.747767   -1.22  -1.10
iter:   4 01:31:00     7.364652   -1.47  -1.23
iter:   5 01:31:13     7.665057   -1.61  -1.40
iter:   6 01:31:25     7.667443   -2.39  -1.84
iter:   7 01:31:38     7.676335c  -3.32  -1.90
iter:   8 01:31:50     7.667100c  -2.86  -2.00
iter:   9 01:32:03     7.669442c  -3.17  -2.28
iter:  10 01:32:16     7.668241c  -3.93  -2.59
iter:  11 01:32:29     7.669873c  -3.68  -2.61
iter:  12 01:32:42     7.669916c  -4.99  -3.05
iter:  13 01:32:54     7.669935c  -5.75  -3.17
iter:  14 01:33:08     7.670066c  -5.61  -3.21
iter:  15 01:33:21     7.670064c  -6.20  -3.41
iter:  16 01:33:34     7.670041c  -6.29  -3.47
iter:  17 01:33:47     7.670081c  -6.43  -3.56
iter:  18 01:33:59     7.670103c  -6.46  -3.67
iter:  19 01:34:12     7.670092c  -6.70  -3.77
iter:  20 01:34:25     7.670100c  -7.42c -3.94
iter:  21 01:34:38     7.670106c  -8.07c -4.06c

Converged after 21 iterations.

Dipole moment: (-0.000000, 0.000000, -0.193402) |e|*Ang

Energy contributions relative to reference atoms: (reference = -1616706.077045)

Kinetic:       +538.424301
Potential:     -453.678488
External:        +0.000000
XC:             -75.470173
Entropy (-ST):   -0.079550
Local:           -1.565759
SIC:             +0.000000
--------------------------
Free energy:     +7.630331
Extrapolated:    +7.670106

Showing only first 2 kpts
 Kpt  Band  Eigenvalues  Occupancy
  0    24      7.51935    1.99999
  0    25      8.64160    1.64311
  0    26     10.23024    0.00000
  0    27     10.34517    0.00000

  1    24      7.51935    1.99999
  1    25      8.64160    1.64311
  1    26     10.23024    0.00000
  1    27     10.34517    0.00000


Fermi level: 8.79430

No gap
No difference between direct/indirect transitions

Forces in eV/Ang:
  0 W     0.00000    0.00000   79.04938
  1 W     0.00000    0.00000   79.04938
  2 Te    0.00000   -0.00000    1.87466
  3 Te    0.00000    0.00000  -80.90773
  4 Te    0.00000    0.00000  -80.90773
  5 Te   -0.00000    0.00000    1.87466

System changes: positions 

Initializing position-dependent things.

Density initialized from wave functions
                  
                  
                  
                  
                  
       Te         
                  
                  
                  
                  
                  
                  
         Te       
                  
                  
                  
       W          
                  
                  
                  
                  
                  
                  
         W        
                  
         Te       
                  
                  
                  
                  
                  
                  
                  
                  
                  
       Te         
                  
                  
                  
                  

Positions:
   0 W      1.773000    1.023642    3.700406    ( 0.0000,  0.0000,  0.0000)
   1 W      1.773000   -1.023642   10.710406    ( 0.0000,  0.0000,  0.0000)
   2 Te     1.773000    1.023642   12.202034    ( 0.0000,  0.0000,  0.0000)
   3 Te     1.773000   -1.023642   -5.387400    ( 0.0000,  0.0000,  0.0000)
   4 Te     1.773000    1.023642    1.622600    ( 0.0000,  0.0000,  0.0000)
   5 Te     1.773000   -1.023642   19.212034    ( 0.0000,  0.0000,  0.0000)

Unit cell:
           periodic     x           y           z      points  spacing
  1. axis:    yes    1.773000   -3.070926    0.000000    21     0.1462
  2. axis:    yes    1.773000    3.070926    0.000000    21     0.1462
  3. axis:    yes    0.000000    0.000000   14.020000    80     0.1752

  Lengths:   3.546000   3.546000  14.020000
  Angles:   90.000000  90.000000 120.000000

Effective grid spacing dv^(1/3) = 0.1630

     iter     time        total  log10-change:
                         energy   eigst   dens
iter:   1 01:34:51   -45.944489   +0.47
iter:   2 01:35:04   -37.319329   -0.87  -0.70
iter:   3 01:35:17   -25.825616   -0.12  -0.81
iter:   4 01:35:29   -25.687233   -1.98  -1.40
iter:   5 01:35:42   -25.618213   -2.37  -1.52
iter:   6 01:35:55   -25.137671   -1.53  -1.59
iter:   7 01:36:08   -25.120773   -3.14  -1.95
iter:   8 01:36:21   -25.102716   -3.18  -2.01
iter:   9 01:36:34   -25.080281   -2.70  -2.12
iter:  10 01:36:46   -25.062952   -3.14  -2.15
iter:  11 01:36:58   -25.062564c  -3.83  -2.53
iter:  12 01:37:11   -25.062483c  -4.80  -2.61
iter:  13 01:37:24   -25.061751c  -3.78  -2.64
iter:  14 01:37:37   -25.061630c  -4.72  -2.94
iter:  15 01:37:50   -25.061749c  -5.37  -3.13
iter:  16 01:38:03   -25.061800c  -5.79  -3.17
iter:  17 01:38:16   -25.061416c  -5.34  -3.19
iter:  18 01:38:28   -25.061333c  -5.64  -3.35
iter:  19 01:38:41   -25.061387c  -5.90  -3.54
iter:  20 01:38:54   -25.061435c  -6.61  -3.75
iter:  21 01:39:07   -25.061406c  -6.44  -3.83
iter:  22 01:39:21   -25.061401c  -7.43c -4.19c

Converged after 22 iterations.

Dipole moment: (-0.000000, 0.000006, -0.611175) |e|*Ang

Energy contributions relative to reference atoms: (reference = -1616706.077045)

Kinetic:       +227.264491
Potential:     -198.577127
External:        +0.000000
XC:             -53.395872
Entropy (-ST):   -0.129866
Local:           -0.287960
SIC:             +0.000000
--------------------------
Free energy:    -25.126334
Extrapolated:   -25.061401

Showing only first 2 kpts
 Kpt  Band  Eigenvalues  Occupancy
  0    24      8.33906    1.87934
  0    25      9.34396    0.00135
  0    26     10.28384    0.00000
  0    27     10.37726    0.00000

  1    24      8.33906    1.87934
  1    25      9.34396    0.00135
  1    26     10.28384    0.00000
  1    27     10.37726    0.00000


Fermi level: 8.61363

No gap
No difference between direct/indirect transitions

Forces in eV/Ang:
  0 W     0.00000    0.00000   13.67890
  1 W    -0.00000    0.00000   13.67825
  2 Te    0.00000   -0.00000    3.29033
  3 Te    0.00000    0.00000  -16.97246
  4 Te   -0.00000    0.00000  -16.97284
  5 Te    0.00000    0.00000    3.29077

System changes: positions 

Initializing position-dependent things.

Density initialized from wave functions
                  
                  
                  
                  
                  
       Te         
                  
                  
                  
                  
                  
                  
         Te       
                  
                  
                  
       W          
                  
                  
                  
                  
                  
                  
         W        
                  
         Te       
                  
                  
                  
                  
                  
                  
                  
                  
                  
       Te         
                  
                  
                  
                  

Positions:
   0 W      1.773000    1.023642    3.721784    ( 0.0000,  0.0000,  0.0000)
   1 W      1.773000   -1.023642   10.731784    ( 0.0000,  0.0000,  0.0000)
   2 Te     1.773000    1.023642   12.255001    ( 0.0000,  0.0000,  0.0000)
   3 Te     1.773000   -1.023642   -5.461853    ( 0.0000,  0.0000,  0.0000)
   4 Te     1.773000    1.023642    1.548147    ( 0.0000,  0.0000,  0.0000)
   5 Te     1.773000   -1.023642   19.265001    ( 0.0000,  0.0000,  0.0000)

Unit cell:
           periodic     x           y           z      points  spacing
  1. axis:    yes    1.773000   -3.070926    0.000000    21     0.1462
  2. axis:    yes    1.773000    3.070926    0.000000    21     0.1462
  3. axis:    yes    0.000000    0.000000   14.020000    80     0.1752

  Lengths:   3.546000   3.546000  14.020000
  Angles:   90.000000  90.000000 120.000000

Effective grid spacing dv^(1/3) = 0.1630

     iter     time        total  log10-change:
                         energy   eigst   dens
iter:   1 01:39:34   -28.096009   -1.29
iter:   2 01:39:47   -27.975491   -2.62  -1.61
iter:   3 01:39:59   -27.853545   -2.29  -1.73
iter:   4 01:40:13   -27.848771   -3.62  -2.15
iter:   5 01:40:25   -27.841245c  -3.87  -2.21
iter:   6 01:40:38   -27.837247c  -3.68  -2.33
iter:   7 01:40:51   -27.832565c  -3.74  -2.45
iter:   8 01:41:04   -27.832271c  -4.80  -2.88
iter:   9 01:41:17   -27.832223c  -4.78  -2.94
iter:  10 01:41:30   -27.831946c  -5.15  -3.11
iter:  11 01:41:42   -27.832008c  -6.04  -3.43
iter:  12 01:41:55   -27.832011c  -7.19  -3.48
iter:  13 01:42:08   -27.831968c  -6.34  -3.45
iter:  14 01:42:22   -27.831946c  -6.75  -3.59
iter:  15 01:42:34   -27.831933c  -7.12  -3.64
iter:  16 01:42:48   -27.831925c  -6.66  -3.74
iter:  17 01:43:01   -27.831950c  -6.75  -3.81
iter:  18 01:43:14   -27.831954c  -7.78c -3.96
iter:  19 01:43:27   -27.831955c  -6.66  -4.00c
iter:  20 01:43:40   -27.831950c  -8.08c -4.33c

Converged after 20 iterations.

Dipole moment: (-0.000000, -0.000007, -0.769491) |e|*Ang

Energy contributions relative to reference atoms: (reference = -1616706.077045)

Kinetic:       +176.312468
Potential:     -155.331325
External:        +0.000000
XC:             -48.665534
Entropy (-ST):   -0.141028
Local:           -0.077046
SIC:             +0.000000
--------------------------
Free energy:    -27.902464
Extrapolated:   -27.831950

Showing only first 2 kpts
 Kpt  Band  Eigenvalues  Occupancy
  0    24      8.33990    1.77881
  0    25      9.34767    0.00068
  0    26     10.21752    0.00000
  0    27     10.31347    0.00000

  1    24      8.33990    1.77881
  1    25      9.34767    0.00068
  1    26     10.21753    0.00000
  1    27     10.31347    0.00000


Fermi level: 8.54836

No gap
No difference between direct/indirect transitions

Forces in eV/Ang:
  0 W     0.00000    0.00000    7.98180
  1 W    -0.00000    0.00000    7.98284
  2 Te    0.00000    0.00000    2.48948
  3 Te    0.00000    0.00000  -10.47670
  4 Te   -0.00000    0.00000  -10.47614
  5 Te    0.00000    0.00000    2.48909

System changes: positions 

Initializing position-dependent things.

Density initialized from wave functions
                  
                  
                  
                  
                  
       Te         
                  
                  
                  
                  
                  
                  
                  
         Te       
                  
                  
       W          
                  
                  
                  
                  
                  
                  
         W        
                  
                  
         Te       
                  
                  
                  
                  
                  
                  
                  
                  
                  
       Te         
                  
                  
                  
                  

Positions:
   0 W      1.773000    1.023642    3.747220    ( 0.0000,  0.0000,  0.0000)
   1 W      1.773000   -1.023642   10.757220    ( 0.0000,  0.0000,  0.0000)
   2 Te     1.773000    1.023642   12.360594    ( 0.0000,  0.0000,  0.0000)
   3 Te     1.773000   -1.023642   -5.593159    ( 0.0000,  0.0000,  0.0000)
   4 Te     1.773000    1.023642    1.416841    ( 0.0000,  0.0000,  0.0000)
   5 Te     1.773000   -1.023642   19.370594    ( 0.0000,  0.0000,  0.0000)

Unit cell:
           periodic     x           y           z      points  spacing
  1. axis:    yes    1.773000   -3.070926    0.000000    21     0.1462
  2. axis:    yes    1.773000    3.070926    0.000000    21     0.1462
  3. axis:    yes    0.000000    0.000000   14.020000    80     0.1752

  Lengths:   3.546000   3.546000  14.020000
  Angles:   90.000000  90.000000 120.000000

Effective grid spacing dv^(1/3) = 0.1630

     iter     time        total  log10-change:
                         energy   eigst   dens
iter:   1 01:43:54   -30.608457   -0.94
iter:   2 01:44:06   -30.423763   -2.37  -1.49
iter:   3 01:44:19   -30.223229   -2.12  -1.60
iter:   4 01:44:33   -30.210663   -3.33  -1.94
iter:   5 01:44:46   -30.194584   -3.61  -2.01
iter:   6 01:44:58   -30.185273c  -3.27  -2.13
iter:   7 01:45:12   -30.176916c  -3.40  -2.27
iter:   8 01:45:25   -30.176642c  -4.41  -2.69
iter:   9 01:45:38   -30.176309c  -4.53  -2.75
iter:  10 01:45:51   -30.176153c  -5.19  -2.92
iter:  11 01:46:04   -30.175958c  -5.42  -3.01
iter:  12 01:46:17   -30.175965c  -6.40  -3.31
iter:  13 01:46:30   -30.175961c  -7.03  -3.32
iter:  14 01:46:42   -30.175903c  -5.67  -3.34
iter:  15 01:46:56   -30.175883c  -6.14  -3.51
iter:  16 01:47:10   -30.175884c  -7.00  -3.77
iter:  17 01:47:23   -30.175883c  -7.44c -3.92
iter:  18 01:47:36   -30.175885c  -7.40c -4.04c

Converged after 18 iterations.

Dipole moment: (-0.000000, -0.000024, -1.156514) |e|*Ang

Energy contributions relative to reference atoms: (reference = -1616706.077045)

Kinetic:       +110.851355
Potential:      -98.995311
External:        +0.000000
XC:             -42.067900
Entropy (-ST):   -0.161512
Local:           +0.116728
SIC:             +0.000000
--------------------------
Free energy:    -30.256641
Extrapolated:   -30.175885

Showing only first 2 kpts
 Kpt  Band  Eigenvalues  Occupancy
  0    24      8.30663    1.68976
  0    25      9.30965    0.00048
  0    26     10.06160    0.00000
  0    27     10.16294    0.00000

  1    24      8.30664    1.68976
  1    25      9.30964    0.00048
  1    26     10.06161    0.00000
  1    27     10.16294    0.00000


Fermi level: 8.47613

No gap
No difference between direct/indirect transitions

Forces in eV/Ang:
  0 W    -0.00000    0.00000    2.90588
  1 W     0.00000   -0.00000    2.90871
  2 Te   -0.00000   -0.00000    0.63939
  3 Te   -0.00000   -0.00000   -3.55146
  4 Te    0.00000    0.00000   -3.54963
  5 Te    0.00000    0.00000    0.63896

System changes: positions 

Initializing position-dependent things.

Density initialized from wave functions
                  
                  
                  
                  
                  
       Te         
                  
                  
                  
                  
                  
                  
         Te       
                  
                  
                  
       W          
                  
                  
                  
                  
                  
                  
         W        
                  
                  
         Te       
                  
                  
                  
                  
                  
                  
                  
                  
                  
       Te         
                  
                  
                  
                  

Positions:
   0 W      1.773000    1.023642    3.762371    ( 0.0000,  0.0000,  0.0000)
   1 W      1.773000   -1.023642   10.772371    ( 0.0000,  0.0000,  0.0000)
   2 Te     1.773000    1.023642   12.408965    ( 0.0000,  0.0000,  0.0000)
   3 Te     1.773000   -1.023642   -5.656873    ( 0.0000,  0.0000,  0.0000)
   4 Te     1.773000    1.023642    1.353127    ( 0.0000,  0.0000,  0.0000)
   5 Te     1.773000   -1.023642   19.418965    ( 0.0000,  0.0000,  0.0000)

Unit cell:
           periodic     x           y           z      points  spacing
  1. axis:    yes    1.773000   -3.070926    0.000000    21     0.1462
  2. axis:    yes    1.773000    3.070926    0.000000    21     0.1462
  3. axis:    yes    0.000000    0.000000   14.020000    80     0.1752

  Lengths:   3.546000   3.546000  14.020000
  Angles:   90.000000  90.000000 120.000000

Effective grid spacing dv^(1/3) = 0.1630

     iter     time        total  log10-change:
                         energy   eigst   dens
iter:   1 01:47:51   -30.653508   -1.61
iter:   2 01:48:04   -30.610794   -3.08  -1.79
iter:   3 01:48:17   -30.586204   -3.11  -1.91
iter:   4 01:48:31   -30.558862   -3.29  -2.01
iter:   5 01:48:44   -30.556234   -4.14  -2.37
iter:   6 01:49:00   -30.554461c  -3.94  -2.47
iter:   7 01:49:13   -30.552786c  -4.20  -2.60
iter:   8 01:49:26   -30.552701c  -4.92  -2.98
iter:   9 01:49:39   -30.552677c  -5.76  -3.07
iter:  10 01:49:52   -30.552677c  -5.54  -3.18
iter:  11 01:50:05   -30.552688c  -5.82  -3.34
iter:  12 01:50:18   -30.552654c  -6.26  -3.59
iter:  13 01:50:31   -30.552671c  -6.32  -3.65
iter:  14 01:50:43   -30.552653c  -6.77  -3.83
iter:  15 01:50:56   -30.552640c  -7.24  -4.11c
iter:  16 01:51:11   -30.552640c  -8.37c -4.27c

Converged after 16 iterations.

Dipole moment: (-0.000000, 0.000003, -1.433253) |e|*Ang

Energy contributions relative to reference atoms: (reference = -1616706.077045)

Kinetic:        +88.038010
Potential:      -78.986890
External:        +0.000000
XC:             -39.660605
Entropy (-ST):   -0.182020
Local:           +0.147854
SIC:             +0.000000
--------------------------
Free energy:    -30.643650
Extrapolated:   -30.552640

Showing only first 2 kpts
 Kpt  Band  Eigenvalues  Occupancy
  0    24      8.32528    1.61165
  0    25      9.32097    0.00039
  0    26      9.96579    0.00000
  0    27     10.06703    0.00000

  1    24      8.32528    1.61165
  1    25      9.32097    0.00039
  1    26      9.96579    0.00000
  1    27     10.06703    0.00000


Fermi level: 8.46759

No gap
No difference between direct/indirect transitions

Forces in eV/Ang:
  0 W     0.00000   -0.00000    1.53476
  1 W     0.00000    0.00000    1.53416
  2 Te    0.00000   -0.00000   -0.25541
  3 Te    0.00000    0.00000   -1.28273
  4 Te   -0.00000   -0.00000   -1.28329
  5 Te   -0.00000    0.00000   -0.25515

System changes: positions 

Initializing position-dependent things.

Density initialized from wave functions
                  
                  
                  
                  
                  
       Te         
                  
                  
                  
                  
                  
                  
         Te       
                  
                  
                  
       W          
                  
                  
                  
                  
                  
                  
         W        
                  
                  
         Te       
                  
                  
                  
                  
                  
                  
                  
                  
                  
       Te         
                  
                  
                  
                  

Positions:
   0 W      1.773000    1.023642    3.775654    ( 0.0000,  0.0000,  0.0000)
   1 W      1.773000   -1.023642   10.785654    ( 0.0000,  0.0000,  0.0000)
   2 Te     1.773000    1.023642   12.422866    ( 0.0000,  0.0000,  0.0000)
   3 Te     1.773000   -1.023642   -5.684204    ( 0.0000,  0.0000,  0.0000)
   4 Te     1.773000    1.023642    1.325796    ( 0.0000,  0.0000,  0.0000)
   5 Te     1.773000   -1.023642   19.432866    ( 0.0000,  0.0000,  0.0000)

Unit cell:
           periodic     x           y           z      points  spacing
  1. axis:    yes    1.773000   -3.070926    0.000000    21     0.1462
  2. axis:    yes    1.773000    3.070926    0.000000    21     0.1462
  3. axis:    yes    0.000000    0.000000   14.020000    80     0.1752

  Lengths:   3.546000   3.546000  14.020000
  Angles:   90.000000  90.000000 120.000000

Effective grid spacing dv^(1/3) = 0.1630

     iter     time        total  log10-change:
                         energy   eigst   dens
iter:   1 01:51:25   -30.667560   -2.19
iter:   2 01:51:38   -30.642969   -3.66  -1.94
iter:   3 01:51:51   -30.617631   -3.14  -2.07
iter:   4 01:52:04   -30.617156c  -4.30  -2.57
iter:   5 01:52:17   -30.616059c  -4.72  -2.63
iter:   6 01:52:30   -30.615581c  -4.49  -2.81
iter:   7 01:52:44   -30.615146c  -4.79  -2.88
iter:   8 01:52:58   -30.615146c  -5.79  -3.33
iter:   9 01:53:12   -30.615144c  -6.33  -3.36
iter:  10 01:53:25   -30.615175c  -5.97  -3.50
iter:  11 01:53:37   -30.615171c  -6.78  -3.69
iter:  12 01:53:50   -30.615169c  -7.72c -3.88
iter:  13 01:54:03   -30.615165c  -7.74c -3.90
iter:  14 01:54:17   -30.615160c  -7.55c -3.98
iter:  15 01:54:30   -30.615159c  -7.91c -4.23c

Converged after 15 iterations.

Dipole moment: (-0.000000, 0.000000, -1.600255) |e|*Ang

Energy contributions relative to reference atoms: (reference = -1616706.077045)

Kinetic:        +80.592610
Potential:      -72.360331
External:        +0.000000
XC:             -38.907169
Entropy (-ST):   -0.194284
Local:           +0.156872
SIC:             +0.000000
--------------------------
Free energy:    -30.712301
Extrapolated:   -30.615159

Showing only first 2 kpts
 Kpt  Band  Eigenvalues  Occupancy
  0    24      8.36204    1.48767
  0    25      9.35542    0.00028
  0    26      9.93070    0.00000
  0    27     10.03066    0.00000

  1    24      8.36204    1.48767
  1    25      9.35542    0.00028
  1    26      9.93070    0.00000
  1    27     10.03066    0.00000


Fermi level: 8.46864

No gap
No difference between direct/indirect transitions

Forces in eV/Ang:
  0 W    -0.00000   -0.00000    0.90998
  1 W     0.00000    0.00000    0.90964
  2 Te    0.00000    0.00000   -0.47435
  3 Te   -0.00000    0.00000   -0.44439
  4 Te   -0.00000    0.00000   -0.44461
  5 Te    0.00000    0.00000   -0.47433

System changes: positions 

Initializing position-dependent things.

Density initialized from wave functions
                  
                  
                  
                  
                  
       Te         
                  
                  
                  
                  
                  
                  
         Te       
                  
                  
                  
       W          
                  
                  
                  
                  
                  
                  
         W        
                  
                  
         Te       
                  
                  
                  
                  
                  
                  
                  
                  
                  
       Te         
                  
                  
                  
                  

Positions:
   0 W      1.773000    1.023642    3.788225    ( 0.0000,  0.0000,  0.0000)
   1 W      1.773000   -1.023642   10.798225    ( 0.0000,  0.0000,  0.0000)
   2 Te     1.773000    1.023642   12.421952    ( 0.0000,  0.0000,  0.0000)
   3 Te     1.773000   -1.023642   -5.696116    ( 0.0000,  0.0000,  0.0000)
   4 Te     1.773000    1.023642    1.313884    ( 0.0000,  0.0000,  0.0000)
   5 Te     1.773000   -1.023642   19.431952    ( 0.0000,  0.0000,  0.0000)

Unit cell:
           periodic     x           y           z      points  spacing
  1. axis:    yes    1.773000   -3.070926    0.000000    21     0.1462
  2. axis:    yes    1.773000    3.070926    0.000000    21     0.1462
  3. axis:    yes    0.000000    0.000000   14.020000    80     0.1752

  Lengths:   3.546000   3.546000  14.020000
  Angles:   90.000000  90.000000 120.000000

Effective grid spacing dv^(1/3) = 0.1630

     iter     time        total  log10-change:
                         energy   eigst   dens
iter:   1 01:54:46   -30.677004   -2.45
iter:   2 01:54:59   -30.656364   -3.91  -1.99
iter:   3 01:55:13   -30.637329   -3.34  -2.14
iter:   4 01:55:26   -30.636673c  -4.37  -2.62
iter:   5 01:55:40   -30.635623c  -4.58  -2.70
iter:   6 01:55:53   -30.635344c  -4.96  -3.01
iter:   7 01:56:06   -30.635215c  -5.46  -3.08
iter:   8 01:56:19   -30.635213c  -6.24  -3.53
iter:   9 01:56:32   -30.635209c  -7.16  -3.57
iter:  10 01:56:45   -30.635198c  -6.53  -3.62
iter:  11 01:56:58   -30.635194c  -6.84  -3.81
iter:  12 01:57:13   -30.635194c  -7.42c -4.02c

Converged after 12 iterations.

Dipole moment: (-0.000000, 0.000009, -1.706263) |e|*Ang

Energy contributions relative to reference atoms: (reference = -1616706.077045)

Kinetic:        +78.354522
Potential:      -70.302670
External:        +0.000000
XC:             -38.743754
Entropy (-ST):   -0.201329
Local:           +0.157372
SIC:             +0.000000
--------------------------
Free energy:    -30.735859
Extrapolated:   -30.635194

Showing only first 2 kpts
 Kpt  Band  Eigenvalues  Occupancy
  0    24      8.40297    1.31344
  0    25      9.39742    0.00018
  0    26      9.92688    0.00000
  0    27     10.02592    0.00000

  1    24      8.40297    1.31344
  1    25      9.39742    0.00018
  1    26      9.92688    0.00000
  1    27     10.02592    0.00000


Fermi level: 8.46784

No gap
No difference between direct/indirect transitions

Forces in eV/Ang:
  0 W     0.00000    0.00000    0.46325
  1 W    -0.00000    0.00000    0.46361
  2 Te    0.00000    0.00000   -0.40621
  3 Te   -0.00000    0.00000   -0.05808
  4 Te    0.00000    0.00000   -0.05859
  5 Te    0.00000    0.00000   -0.40684

System changes: positions 

Initializing position-dependent things.

Density initialized from wave functions
                  
                  
                  
                  
                  
       Te         
                  
                  
                  
                  
                  
                  
         Te       
                  
                  
                  
       W          
                  
                  
                  
                  
                  
                  
         W        
                  
                  
         Te       
                  
                  
                  
                  
                  
                  
                  
                  
                  
       Te         
                  
                  
                  
                  

Positions:
   0 W      1.773000    1.023642    3.799670    ( 0.0000,  0.0000,  0.0000)
   1 W      1.773000   -1.023642   10.809670    ( 0.0000,  0.0000,  0.0000)
   2 Te     1.773000    1.023642   12.413503    ( 0.0000,  0.0000,  0.0000)
   3 Te     1.773000   -1.023642   -5.699249    ( 0.0000,  0.0000,  0.0000)
   4 Te     1.773000    1.023642    1.310751    ( 0.0000,  0.0000,  0.0000)
   5 Te     1.773000   -1.023642   19.423503    ( 0.0000,  0.0000,  0.0000)

Unit cell:
           periodic     x           y           z      points  spacing
  1. axis:    yes    1.773000   -3.070926    0.000000    21     0.1462
  2. axis:    yes    1.773000    3.070926    0.000000    21     0.1462
  3. axis:    yes    0.000000    0.000000   14.020000    80     0.1752

  Lengths:   3.546000   3.546000  14.020000
  Angles:   90.000000  90.000000 120.000000

Effective grid spacing dv^(1/3) = 0.1630

     iter     time        total  log10-change:
                         energy   eigst   dens
iter:   1 01:57:27   -30.677914   -2.55
iter:   2 01:57:40   -30.660833   -4.03  -2.04
iter:   3 01:57:52   -30.646050   -3.51  -2.21
iter:   4 01:58:06   -30.645738c  -4.31  -2.68
iter:   5 01:58:19   -30.644635c  -4.68  -2.71
iter:   6 01:58:33   -30.644440c  -5.25  -3.11
iter:   7 01:58:46   -30.644395c  -5.31  -3.17
iter:   8 01:58:58   -30.644391c  -6.19  -3.56
iter:   9 01:59:11   -30.644378c  -7.23  -3.61
iter:  10 01:59:25   -30.644332c  -6.36  -3.67
iter:  11 01:59:38   -30.644324c  -6.91  -3.99
iter:  12 01:59:51   -30.644325c  -7.59c -4.04c

Converged after 12 iterations.

Dipole moment: (-0.000000, -0.000019, -1.765030) |e|*Ang

Energy contributions relative to reference atoms: (reference = -1616706.077045)

Kinetic:        +78.900951
Potential:      -70.706936
External:        +0.000000
XC:             -38.888152
Entropy (-ST):   -0.205076
Local:           +0.152351
SIC:             +0.000000
--------------------------
Free energy:    -30.746863
Extrapolated:   -30.644325

Showing only first 2 kpts
 Kpt  Band  Eigenvalues  Occupancy
  0    24      8.44553    1.09948
  0    25      9.44261    0.00011
  0    26      9.94074    0.00000
  0    27     10.03928    0.00000

  1    24      8.44553    1.09948
  1    25      9.44261    0.00011
  1    26      9.94074    0.00000
  1    27     10.03928    0.00000


Fermi level: 8.46550

No gap
No difference between direct/indirect transitions

Forces in eV/Ang:
  0 W    -0.00000    0.00000    0.08659
  1 W     0.00000   -0.00000    0.08737
  2 Te    0.00000    0.00000   -0.17888
  3 Te   -0.00000    0.00000    0.10217
  4 Te    0.00000    0.00000    0.10185
  5 Te   -0.00000    0.00000   -0.17959

System changes: positions 

Initializing position-dependent things.

Density initialized from wave functions
                  
                  
                  
                  
                  
       Te         
                  
                  
                  
                  
                  
                  
         Te       
                  
                  
                  
       W          
                  
                  
                  
                  
                  
                  
         W        
                  
                  
         Te       
                  
                  
                  
                  
                  
                  
                  
                  
                  
       Te         
                  
                  
                  
                  

Positions:
   0 W      1.773000    1.023642    3.803038    ( 0.0000,  0.0000,  0.0000)
   1 W      1.773000   -1.023642   10.813038    ( 0.0000,  0.0000,  0.0000)
   2 Te     1.773000    1.023642   12.407408    ( 0.0000,  0.0000,  0.0000)
   3 Te     1.773000   -1.023642   -5.696364    ( 0.0000,  0.0000,  0.0000)
   4 Te     1.773000    1.023642    1.313636    ( 0.0000,  0.0000,  0.0000)
   5 Te     1.773000   -1.023642   19.417408    ( 0.0000,  0.0000,  0.0000)

Unit cell:
           periodic     x           y           z      points  spacing
  1. axis:    yes    1.773000   -3.070926    0.000000    21     0.1462
  2. axis:    yes    1.773000    3.070926    0.000000    21     0.1462
  3. axis:    yes    0.000000    0.000000   14.020000    80     0.1752

  Lengths:   3.546000   3.546000  14.020000
  Angles:   90.000000  90.000000 120.000000

Effective grid spacing dv^(1/3) = 0.1630

     iter     time        total  log10-change:
                         energy   eigst   dens
iter:   1 02:00:04   -30.649861   -3.41
iter:   2 02:00:18   -30.648020   -4.91  -2.56
iter:   3 02:00:31   -30.646477c  -4.62  -2.73
iter:   4 02:00:44   -30.646353c  -5.05  -3.15
iter:   5 02:00:57   -30.646284c  -5.85  -3.27
iter:   6 02:01:10   -30.646253c  -6.32  -3.50
iter:   7 02:01:23   -30.646275c  -6.04  -3.56
iter:   8 02:01:37   -30.646278c  -6.86  -3.97
iter:   9 02:01:49   -30.646275c  -8.14c -4.05c

Converged after 9 iterations.

Dipole moment: (-0.000000, -0.000004, -1.760242) |e|*Ang

Energy contributions relative to reference atoms: (reference = -1616706.077045)

Kinetic:        +80.302474
Potential:      -71.906103
External:        +0.000000
XC:             -39.067056
Entropy (-ST):   -0.205060
Local:           +0.126940
SIC:             +0.000000
--------------------------
Free energy:    -30.748805
Extrapolated:   -30.646275

Showing only first 2 kpts
 Kpt  Band  Eigenvalues  Occupancy
  0    24      8.46166    1.01053
  0    25      9.45964    0.00009
  0    26      9.95293    0.00000
  0    27     10.05141    0.00000

  1    24      8.46166    1.01053
  1    25      9.45964    0.00009
  1    26      9.95293    0.00000
  1    27     10.05141    0.00000


Fermi level: 8.46377

No gap
No difference between direct/indirect transitions

Forces in eV/Ang:
  0 W    -0.00000   -0.00000   -0.02567
  1 W     0.00000    0.00000   -0.02528
  2 Te   -0.00000    0.00000   -0.03093
  3 Te   -0.00000    0.00000    0.04270
  4 Te   -0.00000   -0.00000    0.04236
  5 Te   -0.00000   -0.00000   -0.03141

Timing:                                      incl.     excl.
-------------------------------------------------------------------
Density initialized from wave functions:     6.656     6.639   0.3% |
 Symmetrize density:                         0.017     0.017   0.0% |
Forces:                                      6.395     6.395   0.3% |
Hamiltonian:                                 1.626     0.009   0.0% |
 Atomic:                                     1.035     0.006   0.0% |
  XC Correction:                             1.030     1.030   0.0% |
 Calculate atomic Hamiltonians:              0.091     0.091   0.0% |
 Communicate:                                0.000     0.000   0.0% |
 Initialize Hamiltonian:                     0.000     0.000   0.0% |
 Poisson:                                    0.006     0.006   0.0% |
 XC 3D grid:                                 0.485     0.485   0.0% |
LCAO initialization:                        10.967     0.050   0.0% |
 LCAO eigensolver:                           4.093     0.002   0.0% |
  Calculate projections:                     0.005     0.005   0.0% |
  DenseAtomicCorrection:                     0.016     0.016   0.0% |
  Distribute overlap matrix:                 0.002     0.002   0.0% |
  Orbital Layouts:                           2.052     2.052   0.1% |
  Potential matrix:                          0.253     0.253   0.0% |
  Sum over cells:                            1.764     1.764   0.1% |
 LCAO to grid:                               6.353     6.353   0.3% |
 Set positions (LCAO WFS):                   0.471     0.064   0.0% |
  Basic WFS set positions:                   0.000     0.000   0.0% |
  Basis functions set positions:             0.000     0.000   0.0% |
  P tci:                                     0.298     0.298   0.0% |
  ST tci:                                    0.105     0.105   0.0% |
  mktci:                                     0.004     0.004   0.0% |
PWDescriptor:                                0.043     0.043   0.0% |
Redistribute:                                0.046     0.046   0.0% |
SCF-cycle:                                1882.174     1.971   0.1% |
 Davidson:                                1724.824   190.514   8.7% |--|
  Apply H:                                 334.985   330.803  15.1% |-----|
   HMM T:                                    4.182     4.182   0.2% |
  Subspace diag:                           377.272     0.581   0.0% |
   calc_h_matrix:                          351.085    14.477   0.7% |
    Apply H:                               336.608   332.223  15.2% |-----|
     HMM T:                                  4.385     4.385   0.2% |
   diagonalize:                              2.934     2.934   0.1% |
   rotate_psi:                              22.672    22.672   1.0% |
  calc. matrices:                          676.693    76.020   3.5% ||
   Apply H:                                600.673   592.431  27.0% |----------|
    HMM T:                                   8.242     8.242   0.4% |
  diagonalize:                             102.765   102.765   4.7% |-|
  rotate_psi:                               42.595    42.595   1.9% ||
 Density:                                  127.354     0.002   0.0% |
  Atomic density matrices:                   0.564     0.564   0.0% |
  Mix:                                      13.311    13.311   0.6% |
  Multipole moments:                         0.012     0.012   0.0% |
  Pseudo density:                          113.466   113.176   5.2% |-|
   Symmetrize density:                       0.289     0.289   0.0% |
 Hamiltonian:                               24.497     0.136   0.0% |
  Atomic:                                   15.563     0.076   0.0% |
   XC Correction:                           15.487    15.487   0.7% |
  Calculate atomic Hamiltonians:             1.418     1.418   0.1% |
  Communicate:                               0.001     0.001   0.0% |
  Poisson:                                   0.093     0.093   0.0% |
  XC 3D grid:                                7.287     7.287   0.3% |
 Orthonormalize:                             3.528     0.032   0.0% |
  calc_s_matrix:                             0.467     0.467   0.0% |
  inverse-cholesky:                          0.064     0.064   0.0% |
  projections:                               2.264     2.264   0.1% |
  rotate_psi_s:                              0.701     0.701   0.0% |
Set symmetry:                                0.004     0.004   0.0% |
Other:                                     283.782   283.782  12.9% |----|
-------------------------------------------------------------------
Total:                                              2191.693 100.0%

Memory usage: 796.70 MiB
Date: Mon Apr  7 02:06:31 2025
