
  ___ ___ ___ _ _ _  
 |   |   |_  | | | | 
 | | | | | . | | | | 
 |__ |  _|___|_____|  25.1.0
 |___|_|             

User:   georgios-vourvachakis@georgios-vourvachakis-82K2
Date:   Mon Apr  7 16:18:57 2025
Arch:   x86_64
Pid:    9554
CWD:    /home/georgios-vourvachakis/Desktop/DFT_codes
Python: 3.12.3
gpaw:   /home/georgios-vourvachakis/Desktop/DFT_codes/.venv/lib/python3.12/site-packages/gpaw
_gpaw:  /home/georgios-vourvachakis/Desktop/DFT_codes/.venv/lib/python3.12/site-packages/
        _gpaw.cpython-312-x86_64-linux-gnu.so
ase:    /home/georgios-vourvachakis/Desktop/DFT_codes/.venv/lib/python3.12/site-packages/ase (version 3.24.0)
numpy:  /home/georgios-vourvachakis/Desktop/DFT_codes/.venv/lib/python3.12/site-packages/numpy (version 2.2.3)
scipy:  /home/georgios-vourvachakis/Desktop/DFT_codes/.venv/lib/python3.12/site-packages/scipy (version 1.15.1)
libxc:  5.2.3
units:  Angstrom and eV
cores: 1
OpenMP: False
OMP_NUM_THREADS: 1

Input parameters:
  kpts: [10 10  2]
  mode: {ecut: 600.0,
         name: pw}
  xc: PBE

System changes: positions, numbers, cell, pbc, initial_charges, initial_magmoms 

Initialize ...

species:
  W:
    name: Tungsten
    id: 3ed563b7d19992259c4d7db283f2ff78
    Z: 74.0
    valence: 14
    core: 60
    charge: 0.0
    file: /home/georgios-vourvachakis/Desktop/DFT_codes/gpaw_datasets/gpaw-setups-0.9.20000/W.PBE.gz
    compensation charges: {type: gauss,
                           rc: 0.40,
                           lmax: 2}
    cutoffs: {filter: 2.36,
              core: 3.02}
    projectors:
      #              energy  rcut
      - 5s(2.00)   -78.830   1.344
      - 6s(2.00)    -5.697   1.344
      - 5p(6.00)   -43.233   1.355
      - 6p(0.00)    -1.367   1.355
      - 5d(4.00)    -4.494   1.228
      -  d          22.717   1.228
  
    # Using partial waves for W as LCAO basis

  Te:
    name: Tellurium
    id: e44b9ef4772d7e5a1c6a47e6d6496588
    Z: 52.0
    valence: 6
    core: 46
    charge: 0.0
    file: /home/georgios-vourvachakis/Desktop/DFT_codes/gpaw_datasets/gpaw-setups-0.9.20000/Te.PBE.gz
    compensation charges: {type: gauss,
                           rc: 0.36,
                           lmax: 2}
    cutoffs: {filter: 2.09,
              core: 3.17}
    projectors:
      #              energy  rcut
      - 5s(2.00)   -15.089   1.180
      - 5p(4.00)    -5.955   1.196
      -  s          12.123   1.180
      -  p          21.256   1.196
      -  d           0.000   1.238
  
    # Using partial waves for Te as LCAO basis

Reference energy: -1616706.077045  # eV

Spin-paired calculation

Convergence criteria:
 Maximum [total energy] change in last 3 cyles: 0.0005 eV / valence electron
 Maximum integral of absolute [dens]ity change: 0.0001 electrons / valence electron
 Maximum integral of absolute [eigenst]ate change: 4e-08 eV^2 / valence electron
 Maximum number of scf [iter]ations: 333
 (Square brackets indicate name in SCF output, whereas a 'c' in
 the SCF output indicates the quantity has converged.)

Symmetries present (total): 6

  ( 1  1  0)  ( 1  0  0)  ( 0  1  0)  ( 0 -1  0)  (-1  0  0)  (-1 -1  0)
  ( 0 -1  0)  ( 0  1  0)  (-1 -1  0)  (-1  0  0)  ( 1  1  0)  ( 1  0  0)
  ( 0  0  1)  ( 0  0  1)  ( 0  0  1)  ( 0  0  1)  ( 0  0  1)  ( 0  0  1)
Note: your k-points are not as symmetric as your crystal!

200 k-points: 10 x 10 x 2 Monkhorst-Pack grid
55 k-points in the irreducible part of the Brillouin zone
       k-points in crystal coordinates                weights
   0:     0.05000000   -0.05000000   -0.25000000          2/200
   1:     0.05000000   -0.05000000    0.25000000          2/200
   2:     0.05000000    0.05000000    0.25000000          4/200
   3:     0.15000000   -0.15000000   -0.25000000          2/200
   4:     0.15000000   -0.15000000    0.25000000          2/200
   5:     0.15000000   -0.05000000   -0.25000000          4/200
   6:     0.15000000   -0.05000000    0.25000000          4/200
   7:     0.15000000    0.05000000   -0.25000000          4/200
   8:     0.15000000    0.05000000    0.25000000          4/200
   9:     0.15000000    0.15000000    0.25000000          4/200
          ...
  54:     0.45000000    0.45000000    0.25000000          4/200

Wave functions: Plane wave expansion
  Cutoff energy: 600.000 eV
  Number of coefficients (min, max): 5636, 5697
  Pulay-stress correction: 0.000000 eV/Ang^3 (de/decut=0.000000)
  Using Numpy's FFT
  ScaLapack parameters: grid=1x1, blocksize=None
  Wavefunction extrapolation:
    Improved wavefunction reuse through dual PAW basis 

Occupation numbers: Fermi-Dirac:
  width: 0.1000  # eV
 

Eigensolver
   Davidson(niter=2) 

Densities:
  Coarse grid: 21*21*84 grid
  Fine grid: 42*42*168 grid
  Total Charge: 0.000000 

Density mixing:
  Method: separate
  Backend: pulay
  Linear mixing parameter: 0.05
  old densities: 5
  Damping of long wavelength oscillations: 50 

Hamiltonian:
  XC and Coulomb potentials evaluated on a 42*42*168 grid
  Using the PBE Exchange-Correlation functional
  External potential:
    NoExternalPotential
 

XC parameters: PBE with 2 nearest neighbor stencil

Memory estimate:
  Process memory now: 518.98 MiB
  Calculator: 254.87 MiB
    Density: 17.68 MiB
      Arrays: 7.35 MiB
      Localized functions: 7.51 MiB
      Mixer: 2.83 MiB
    Hamiltonian: 4.99 MiB
      Arrays: 4.80 MiB
      XC: 0.00 MiB
      Poisson: 0.00 MiB
      vbar: 0.18 MiB
    Wavefunctions: 232.20 MiB
      Arrays psit_nG: 172.12 MiB
      Eigensolver: 3.76 MiB
      Projections: 2.66 MiB
      Projectors: 47.46 MiB
      PW-descriptor: 6.19 MiB

Total number of cores used: 1

Number of atoms: 6
Number of atomic orbitals: 42
Number of bands in calculation: 36
Number of valence electrons: 52
Bands to converge: occupied

... initialized

Initializing position-dependent things.

Density initialized from atomic densities
Creating initial wave functions:
  36 bands from LCAO basis set

                  
                  
                  
                  
                  
       Te         
                  
                  
                  
                  
                  
                  
                  
         Te       
                  
                  
       W          
                  
                  
                  
                  
                  
                  
                  
         W        
                  
         Te       
                  
                  
                  
                  
                  
                  
                  
                  
                  
       Te         
                  
                  
                  
                  

Positions:
   0 W      1.831283    1.057292    3.646039    ( 0.0000,  0.0000,  0.0000)
   1 W      1.831283   -1.057292   10.938118    ( 0.0000,  0.0000,  0.0000)
   2 Te     1.831283    1.057292   12.688217    ( 0.0000,  0.0000,  0.0000)
   3 Te     1.831283   -1.057292   -5.396138    ( 0.0000,  0.0000,  0.0000)
   4 Te     1.831283    1.057292    1.895940    ( 0.0000,  0.0000,  0.0000)
   5 Te     1.831283   -1.057292   19.980296    ( 0.0000,  0.0000,  0.0000)

Unit cell:
           periodic     x           y           z      points  spacing
  1. axis:    yes    1.831283   -3.171875    0.000000    21     0.1510
  2. axis:    yes    1.831283    3.171875    0.000000    21     0.1510
  3. axis:    yes    0.000000    0.000000   14.584157    84     0.1736

  Lengths:   3.662565   3.662565  14.584157
  Angles:   90.000000  90.000000 120.000000

Effective grid spacing dv^(1/3) = 0.1660

     iter     time        total  log10-change:
                         energy   eigst   dens
iter:   1 16:19:20    -5.741995
iter:   2 16:19:33    -4.334101   -0.73  -1.00
iter:   3 16:19:46    -3.422737   -1.35  -1.13
iter:   4 16:19:59    -2.785562   -1.56  -1.21
iter:   5 16:20:13    -2.541616   -1.66  -1.41
iter:   6 16:20:26    -2.544866   -2.27  -1.81
iter:   7 16:20:39    -2.531324c  -3.03  -1.91
iter:   8 16:20:52    -2.541626c  -2.66  -2.01
iter:   9 16:21:05    -2.534991c  -3.42  -2.25
iter:  10 16:21:19    -2.534984c  -4.49  -2.59
iter:  11 16:21:32    -2.533177c  -3.95  -2.61
iter:  12 16:21:45    -2.533287c  -4.60  -2.99
iter:  13 16:21:58    -2.533275c  -5.03  -3.13
iter:  14 16:22:11    -2.533337c  -5.39  -3.20
iter:  15 16:22:24    -2.533373c  -6.09  -3.32
iter:  16 16:22:38    -2.533357c  -6.51  -3.41
iter:  17 16:22:51    -2.533309c  -6.61  -3.48
iter:  18 16:23:04    -2.533255c  -6.25  -3.57
iter:  19 16:23:17    -2.533244c  -6.66  -3.78
iter:  20 16:23:30    -2.533243c  -7.04  -3.91
iter:  21 16:23:43    -2.533265c  -6.50  -4.03c
iter:  22 16:23:57    -2.533266c  -7.63c -4.45c

Converged after 22 iterations.

Dipole moment: (-0.000000, -0.000000, -0.192583) |e|*Ang

Energy contributions relative to reference atoms: (reference = -1616706.077045)

Kinetic:       +429.187428
Potential:     -365.952080
External:        +0.000000
XC:             -64.445000
Entropy (-ST):   -0.059353
Local:           -1.293937
SIC:             +0.000000
--------------------------
Free energy:     -2.562943
Extrapolated:    -2.533266

Showing only first 2 kpts
 Kpt  Band  Eigenvalues  Occupancy
  0    24      6.24259    1.99999
  0    25      7.22477    1.80656
  0    26      8.68764    0.00001
  0    27      8.78769    0.00000

  1    24      6.24259    1.99999
  1    25      7.22477    1.80656
  1    26      8.68764    0.00001
  1    27      8.78769    0.00000


Fermi level: 7.44819

Gap: 0.262 eV
Transition (v -> c):
  (s=0, k=5, n=25, [0.15, -0.05, -0.25]) -> (s=0, k=10, n=26, [0.25, -0.25, -0.25])
Direct/indirect transitions are different
Direct gap: 0.524 eV
Transition at: (s=0, k=8, n=25, [0.15, 0.05, 0.25])
Timing:                              incl.     excl.
-----------------------------------------------------------
Hamiltonian:                         0.200     0.001   0.0% |
 Atomic:                             0.115     0.001   0.0% |
  XC Correction:                     0.114     0.114   0.0% |
 Calculate atomic Hamiltonians:      0.012     0.012   0.0% |
 Communicate:                        0.000     0.000   0.0% |
 Initialize Hamiltonian:             0.000     0.000   0.0% |
 Poisson:                            0.001     0.001   0.0% |
 XC 3D grid:                         0.072     0.072   0.0% |
LCAO initialization:                10.434     0.053   0.0% |
 LCAO eigensolver:                   4.321     0.002   0.0% |
  Calculate projections:             0.005     0.005   0.0% |
  DenseAtomicCorrection:             0.013     0.013   0.0% |
  Distribute overlap matrix:         0.001     0.001   0.0% |
  Orbital Layouts:                   2.416     2.416   0.8% |
  Potential matrix:                  0.195     0.195   0.1% |
  Sum over cells:                    1.689     1.689   0.6% |
 LCAO to grid:                       5.688     5.688   1.9% ||
 Set positions (LCAO WFS):           0.372     0.043   0.0% |
  Basic WFS set positions:           0.000     0.000   0.0% |
  Basis functions set positions:     0.000     0.000   0.0% |
  P tci:                             0.216     0.216   0.1% |
  ST tci:                            0.108     0.108   0.0% |
  mktci:                             0.004     0.004   0.0% |
PWDescriptor:                        0.042     0.042   0.0% |
SCF-cycle:                         288.791     0.311   0.1% |
 Davidson:                         263.377    30.795  10.3% |---|
  Apply H:                          53.722    53.126  17.7% |------|
   HMM T:                            0.596     0.596   0.2% |
  Subspace diag:                    60.768     0.074   0.0% |
   calc_h_matrix:                   56.379     2.426   0.8% |
    Apply H:                        53.953    53.308  17.8% |------|
     HMM T:                          0.645     0.645   0.2% |
   diagonalize:                      0.448     0.448   0.1% |
   rotate_psi:                       3.867     3.867   1.3% ||
  calc. matrices:                  105.542    12.775   4.3% |-|
   Apply H:                         92.767    91.559  30.5% |-----------|
    HMM T:                           1.209     1.209   0.4% |
  diagonalize:                       5.540     5.540   1.8% ||
  rotate_psi:                        7.009     7.009   2.3% ||
 Density:                           20.865     0.000   0.0% |
  Atomic density matrices:           0.086     0.086   0.0% |
  Mix:                               2.156     2.156   0.7% |
  Multipole moments:                 0.002     0.002   0.0% |
  Pseudo density:                   18.621    18.575   6.2% |-|
   Symmetrize density:               0.046     0.046   0.0% |
 Hamiltonian:                        3.803     0.021   0.0% |
  Atomic:                            2.330     0.011   0.0% |
   XC Correction:                    2.319     2.319   0.8% |
  Calculate atomic Hamiltonians:     0.247     0.247   0.1% |
  Communicate:                       0.000     0.000   0.0% |
  Poisson:                           0.014     0.014   0.0% |
  XC 3D grid:                        1.191     1.191   0.4% |
 Orthonormalize:                     0.434     0.003   0.0% |
  calc_s_matrix:                     0.058     0.058   0.0% |
  inverse-cholesky:                  0.006     0.006   0.0% |
  projections:                       0.271     0.271   0.1% |
  rotate_psi_s:                      0.095     0.095   0.0% |
Set symmetry:                        0.004     0.004   0.0% |
Other:                               0.331     0.331   0.1% |
-----------------------------------------------------------
Total:                                       299.802 100.0%

Memory usage: 535.86 MiB
Date: Mon Apr  7 16:23:57 2025
