
  ___ ___ ___ _ _ _  
 |   |   |_  | | | | 
 | | | | | . | | | | 
 |__ |  _|___|_____|  25.1.0
 |___|_|             

User:   georgios-vourvachakis@georgios-vourvachakis-82K2
Date:   Mon Apr  7 15:51:58 2025
Arch:   x86_64
Pid:    9554
CWD:    /home/georgios-vourvachakis/Desktop/DFT_codes
Python: 3.12.3
gpaw:   /home/georgios-vourvachakis/Desktop/DFT_codes/.venv/lib/python3.12/site-packages/gpaw
_gpaw:  /home/georgios-vourvachakis/Desktop/DFT_codes/.venv/lib/python3.12/site-packages/
        _gpaw.cpython-312-x86_64-linux-gnu.so
ase:    /home/georgios-vourvachakis/Desktop/DFT_codes/.venv/lib/python3.12/site-packages/ase (version 3.24.0)
numpy:  /home/georgios-vourvachakis/Desktop/DFT_codes/.venv/lib/python3.12/site-packages/numpy (version 2.2.3)
scipy:  /home/georgios-vourvachakis/Desktop/DFT_codes/.venv/lib/python3.12/site-packages/scipy (version 1.15.1)
libxc:  5.2.3
units:  Angstrom and eV
cores: 1
OpenMP: False
OMP_NUM_THREADS: 1

Input parameters:
  kpts: [10 10  2]
  mode: {ecut: 600.0,
         name: pw}
  xc: PBE

System changes: positions, numbers, cell, pbc, initial_charges, initial_magmoms 

Initialize ...

species:
  W:
    name: Tungsten
    id: 3ed563b7d19992259c4d7db283f2ff78
    Z: 74.0
    valence: 14
    core: 60
    charge: 0.0
    file: /home/georgios-vourvachakis/Desktop/DFT_codes/gpaw_datasets/gpaw-setups-0.9.20000/W.PBE.gz
    compensation charges: {type: gauss,
                           rc: 0.40,
                           lmax: 2}
    cutoffs: {filter: 2.36,
              core: 3.02}
    projectors:
      #              energy  rcut
      - 5s(2.00)   -78.830   1.344
      - 6s(2.00)    -5.697   1.344
      - 5p(6.00)   -43.233   1.355
      - 6p(0.00)    -1.367   1.355
      - 5d(4.00)    -4.494   1.228
      -  d          22.717   1.228
  
    # Using partial waves for W as LCAO basis

  Te:
    name: Tellurium
    id: e44b9ef4772d7e5a1c6a47e6d6496588
    Z: 52.0
    valence: 6
    core: 46
    charge: 0.0
    file: /home/georgios-vourvachakis/Desktop/DFT_codes/gpaw_datasets/gpaw-setups-0.9.20000/Te.PBE.gz
    compensation charges: {type: gauss,
                           rc: 0.36,
                           lmax: 2}
    cutoffs: {filter: 2.09,
              core: 3.17}
    projectors:
      #              energy  rcut
      - 5s(2.00)   -15.089   1.180
      - 5p(4.00)    -5.955   1.196
      -  s          12.123   1.180
      -  p          21.256   1.196
      -  d           0.000   1.238
  
    # Using partial waves for Te as LCAO basis

Reference energy: -1616706.077045  # eV

Spin-paired calculation

Convergence criteria:
 Maximum [total energy] change in last 3 cyles: 0.0005 eV / valence electron
 Maximum integral of absolute [dens]ity change: 0.0001 electrons / valence electron
 Maximum integral of absolute [eigenst]ate change: 4e-08 eV^2 / valence electron
 Maximum number of scf [iter]ations: 333
 (Square brackets indicate name in SCF output, whereas a 'c' in
 the SCF output indicates the quantity has converged.)

Symmetries present (total): 6

  ( 1  1  0)  ( 1  0  0)  ( 0  1  0)  ( 0 -1  0)  (-1  0  0)  (-1 -1  0)
  ( 0 -1  0)  ( 0  1  0)  (-1 -1  0)  (-1  0  0)  ( 1  1  0)  ( 1  0  0)
  ( 0  0  1)  ( 0  0  1)  ( 0  0  1)  ( 0  0  1)  ( 0  0  1)  ( 0  0  1)
Note: your k-points are not as symmetric as your crystal!

200 k-points: 10 x 10 x 2 Monkhorst-Pack grid
55 k-points in the irreducible part of the Brillouin zone
       k-points in crystal coordinates                weights
   0:     0.05000000   -0.05000000   -0.25000000          2/200
   1:     0.05000000   -0.05000000    0.25000000          2/200
   2:     0.05000000    0.05000000    0.25000000          4/200
   3:     0.15000000   -0.15000000   -0.25000000          2/200
   4:     0.15000000   -0.15000000    0.25000000          2/200
   5:     0.15000000   -0.05000000   -0.25000000          4/200
   6:     0.15000000   -0.05000000    0.25000000          4/200
   7:     0.15000000    0.05000000   -0.25000000          4/200
   8:     0.15000000    0.05000000    0.25000000          4/200
   9:     0.15000000    0.15000000    0.25000000          4/200
          ...
  54:     0.45000000    0.45000000    0.25000000          4/200

Wave functions: Plane wave expansion
  Cutoff energy: 600.000 eV
  Number of coefficients (min, max): 4245, 4300
  Pulay-stress correction: 0.000000 eV/Ang^3 (de/decut=0.000000)
  Using Numpy's FFT
  ScaLapack parameters: grid=1x1, blocksize=None
  Wavefunction extrapolation:
    Improved wavefunction reuse through dual PAW basis 

Occupation numbers: Fermi-Dirac:
  width: 0.1000  # eV
 

Eigensolver
   Davidson(niter=2) 

Densities:
  Coarse grid: 20*20*75 grid
  Fine grid: 40*40*150 grid
  Total Charge: 0.000000 

Density mixing:
  Method: separate
  Backend: pulay
  Linear mixing parameter: 0.05
  old densities: 5
  Damping of long wavelength oscillations: 50 

Hamiltonian:
  XC and Coulomb potentials evaluated on a 40*40*150 grid
  Using the PBE Exchange-Correlation functional
  External potential:
    NoExternalPotential
 

XC parameters: PBE with 2 nearest neighbor stencil

Memory estimate:
  Process memory now: 169.33 MiB
  Calculator: 193.91 MiB
    Density: 13.90 MiB
      Arrays: 5.95 MiB
      Localized functions: 5.66 MiB
      Mixer: 2.29 MiB
    Hamiltonian: 4.03 MiB
      Arrays: 3.89 MiB
      XC: 0.00 MiB
      Poisson: 0.00 MiB
      vbar: 0.14 MiB
    Wavefunctions: 175.98 MiB
      Arrays psit_nG: 129.91 MiB
      Eigensolver: 2.89 MiB
      Projections: 2.66 MiB
      Projectors: 35.77 MiB
      PW-descriptor: 4.75 MiB

Total number of cores used: 1

Number of atoms: 6
Number of atomic orbitals: 42
Number of bands in calculation: 36
Number of valence electrons: 52
Bands to converge: occupied

... initialized

Initializing position-dependent things.

Density initialized from atomic densities
Creating initial wave functions:
  36 bands from LCAO basis set

                  
                  
                  
                  
                  
       Te         
                  
                  
                  
                  
                  
                  
         Te       
                  
                  
       W          
                  
                  
                  
                  
                  
                  
         W        
                  
         Te       
                  
                  
                  
                  
                  
                  
                  
                  
       Te         
                  
                  
                  
                  

Positions:
   0 W      1.666620    0.962224    3.318200    ( 0.0000,  0.0000,  0.0000)
   1 W      1.666620   -0.962224    9.954600    ( 0.0000,  0.0000,  0.0000)
   2 Te     1.666620    0.962224   11.547336    ( 0.0000,  0.0000,  0.0000)
   3 Te     1.666620   -0.962224   -4.910936    ( 0.0000,  0.0000,  0.0000)
   4 Te     1.666620    0.962224    1.725464    ( 0.0000,  0.0000,  0.0000)
   5 Te     1.666620   -0.962224   18.183736    ( 0.0000,  0.0000,  0.0000)

Unit cell:
           periodic     x           y           z      points  spacing
  1. axis:    yes    1.666620   -2.886671    0.000000    20     0.1443
  2. axis:    yes    1.666620    2.886671    0.000000    20     0.1443
  3. axis:    yes    0.000000    0.000000   13.272800    75     0.1770

  Lengths:   3.333240   3.333240  13.272800
  Angles:   90.000000  90.000000 120.000000

Effective grid spacing dv^(1/3) = 0.1621

     iter     time        total  log10-change:
                         energy   eigst   dens
iter:   1 15:52:20    20.056515
iter:   2 15:52:36    23.338456   -0.59  -0.89
iter:   3 15:52:49    25.617354   -0.97  -1.06
iter:   4 15:53:00    26.106546   -1.41  -1.29
iter:   5 15:53:12    26.428540   -1.61  -1.42
iter:   6 15:53:23    26.430333   -2.57  -1.89
iter:   7 15:53:34    26.433389c  -3.42  -1.92
iter:   8 15:53:45    26.421641c  -2.77  -1.97
iter:   9 15:53:56    26.419957c  -3.04  -2.26
iter:  10 15:54:08    26.419402c  -4.16  -2.58
iter:  11 15:54:19    26.419209c  -4.84  -2.59
iter:  12 15:54:31    26.420052c  -4.36  -2.63
iter:  13 15:54:42    26.420581c  -4.33  -2.77
iter:  14 15:54:53    26.420634c  -4.88  -3.06
iter:  15 15:55:05    26.420681c  -5.42  -3.15
iter:  16 15:55:16    26.420736c  -5.71  -3.23
iter:  17 15:55:29    26.420777c  -6.38  -3.35
iter:  18 15:55:40    26.420804c  -6.21  -3.49
iter:  19 15:55:52    26.420828c  -6.51  -3.70
iter:  20 15:56:04    26.420843c  -6.73  -3.93
iter:  21 15:56:15    26.420842c  -7.67c -4.04c

Converged after 21 iterations.

Dipole moment: (0.000000, 0.000002, -0.250574) |e|*Ang

Energy contributions relative to reference atoms: (reference = -1616706.077045)

Kinetic:       +712.331897
Potential:     -589.793679
External:        +0.000000
XC:             -94.394447
Entropy (-ST):   -0.103885
Local:           -1.670986
SIC:             +0.000000
--------------------------
Free energy:    +26.368900
Extrapolated:   +26.420842

Showing only first 2 kpts
 Kpt  Band  Eigenvalues  Occupancy
  0    24     10.10956    1.99999
  0    25     11.23040    1.49990
  0    26     13.36962    0.00000
  0    27     13.52777    0.00000

  1    24     10.10956    1.99999
  1    25     11.23040    1.49990
  1    26     13.36962    0.00000
  1    27     13.52777    0.00000


Fermi level: 11.34023

No gap
No difference between direct/indirect transitions
Timing:                              incl.     excl.
-----------------------------------------------------------
Hamiltonian:                         0.170     0.001   0.0% |
 Atomic:                             0.118     0.001   0.0% |
  XC Correction:                     0.117     0.117   0.0% |
 Calculate atomic Hamiltonians:      0.011     0.011   0.0% |
 Communicate:                        0.000     0.000   0.0% |
 Initialize Hamiltonian:             0.000     0.000   0.0% |
 Poisson:                            0.001     0.001   0.0% |
 XC 3D grid:                         0.039     0.039   0.0% |
LCAO initialization:                10.720     0.052   0.0% |
 LCAO eigensolver:                   4.086     0.002   0.0% |
  Calculate projections:             0.005     0.005   0.0% |
  DenseAtomicCorrection:             0.012     0.012   0.0% |
  Distribute overlap matrix:         0.001     0.001   0.0% |
  Orbital Layouts:                   2.026     2.026   0.8% |
  Potential matrix:                  0.267     0.267   0.1% |
  Sum over cells:                    1.772     1.772   0.7% |
 LCAO to grid:                       6.203     6.203   2.4% ||
 Set positions (LCAO WFS):           0.379     0.056   0.0% |
  Basic WFS set positions:           0.000     0.000   0.0% |
  Basis functions set positions:     0.000     0.000   0.0% |
  P tci:                             0.188     0.188   0.1% |
  ST tci:                            0.121     0.121   0.0% |
  mktci:                             0.013     0.013   0.0% |
PWDescriptor:                        0.036     0.036   0.0% |
SCF-cycle:                         245.630     0.382   0.1% |
 Davidson:                         225.127    23.283   9.1% |---|
  Apply H:                          42.198    41.699  16.2% |-----|
   HMM T:                            0.499     0.499   0.2% |
  Subspace diag:                    47.400     0.071   0.0% |
   calc_h_matrix:                   44.127     1.833   0.7% |
    Apply H:                        42.293    41.745  16.2% |-----|
     HMM T:                          0.549     0.549   0.2% |
   diagonalize:                      0.422     0.422   0.2% |
   rotate_psi:                       2.780     2.780   1.1% |
  calc. matrices:                   92.281     9.822   3.8% |-|
   Apply H:                         82.459    81.452  31.7% |------------|
    HMM T:                           1.007     1.007   0.4% |
  diagonalize:                      14.769    14.769   5.7% |-|
  rotate_psi:                        5.197     5.197   2.0% ||
 Density:                           16.384     0.000   0.0% |
  Atomic density matrices:           0.083     0.083   0.0% |
  Mix:                               2.021     2.021   0.8% |
  Multipole moments:                 0.002     0.002   0.0% |
  Pseudo density:                   14.279    14.242   5.5% |-|
   Symmetrize density:               0.036     0.036   0.0% |
 Hamiltonian:                        3.353     0.017   0.0% |
  Atomic:                            2.330     0.011   0.0% |
   XC Correction:                    2.320     2.320   0.9% |
  Calculate atomic Hamiltonians:     0.175     0.175   0.1% |
  Communicate:                       0.000     0.000   0.0% |
  Poisson:                           0.011     0.011   0.0% |
  XC 3D grid:                        0.819     0.819   0.3% |
 Orthonormalize:                     0.384     0.003   0.0% |
  calc_s_matrix:                     0.072     0.072   0.0% |
  inverse-cholesky:                  0.007     0.007   0.0% |
  projections:                       0.229     0.229   0.1% |
  rotate_psi_s:                      0.073     0.073   0.0% |
Set symmetry:                        0.005     0.005   0.0% |
Other:                               0.336     0.336   0.1% |
-----------------------------------------------------------
Total:                                       256.897 100.0%

Memory usage: 438.72 MiB
Date: Mon Apr  7 15:56:15 2025
