
  ___ ___ ___ _ _ _  
 |   |   |_  | | | | 
 | | | | | . | | | | 
 |__ |  _|___|_____|  25.1.0
 |___|_|             

User:   georgios-vourvachakis@georgios-vourvachakis-82K2
Date:   Mon Apr  7 15:56:15 2025
Arch:   x86_64
Pid:    9554
CWD:    /home/georgios-vourvachakis/Desktop/DFT_codes
Python: 3.12.3
gpaw:   /home/georgios-vourvachakis/Desktop/DFT_codes/.venv/lib/python3.12/site-packages/gpaw
_gpaw:  /home/georgios-vourvachakis/Desktop/DFT_codes/.venv/lib/python3.12/site-packages/
        _gpaw.cpython-312-x86_64-linux-gnu.so
ase:    /home/georgios-vourvachakis/Desktop/DFT_codes/.venv/lib/python3.12/site-packages/ase (version 3.24.0)
numpy:  /home/georgios-vourvachakis/Desktop/DFT_codes/.venv/lib/python3.12/site-packages/numpy (version 2.2.3)
scipy:  /home/georgios-vourvachakis/Desktop/DFT_codes/.venv/lib/python3.12/site-packages/scipy (version 1.15.1)
libxc:  5.2.3
units:  Angstrom and eV
cores: 1
OpenMP: False
OMP_NUM_THREADS: 1

Input parameters:
  kpts: [10 10  2]
  mode: {ecut: 600.0,
         name: pw}
  xc: PBE

System changes: positions, numbers, cell, pbc, initial_charges, initial_magmoms 

Initialize ...

species:
  W:
    name: Tungsten
    id: 3ed563b7d19992259c4d7db283f2ff78
    Z: 74.0
    valence: 14
    core: 60
    charge: 0.0
    file: /home/georgios-vourvachakis/Desktop/DFT_codes/gpaw_datasets/gpaw-setups-0.9.20000/W.PBE.gz
    compensation charges: {type: gauss,
                           rc: 0.40,
                           lmax: 2}
    cutoffs: {filter: 2.36,
              core: 3.02}
    projectors:
      #              energy  rcut
      - 5s(2.00)   -78.830   1.344
      - 6s(2.00)    -5.697   1.344
      - 5p(6.00)   -43.233   1.355
      - 6p(0.00)    -1.367   1.355
      - 5d(4.00)    -4.494   1.228
      -  d          22.717   1.228
  
    # Using partial waves for W as LCAO basis

  Te:
    name: Tellurium
    id: e44b9ef4772d7e5a1c6a47e6d6496588
    Z: 52.0
    valence: 6
    core: 46
    charge: 0.0
    file: /home/georgios-vourvachakis/Desktop/DFT_codes/gpaw_datasets/gpaw-setups-0.9.20000/Te.PBE.gz
    compensation charges: {type: gauss,
                           rc: 0.36,
                           lmax: 2}
    cutoffs: {filter: 2.09,
              core: 3.17}
    projectors:
      #              energy  rcut
      - 5s(2.00)   -15.089   1.180
      - 5p(4.00)    -5.955   1.196
      -  s          12.123   1.180
      -  p          21.256   1.196
      -  d           0.000   1.238
  
    # Using partial waves for Te as LCAO basis

Reference energy: -1616706.077045  # eV

Spin-paired calculation

Convergence criteria:
 Maximum [total energy] change in last 3 cyles: 0.0005 eV / valence electron
 Maximum integral of absolute [dens]ity change: 0.0001 electrons / valence electron
 Maximum integral of absolute [eigenst]ate change: 4e-08 eV^2 / valence electron
 Maximum number of scf [iter]ations: 333
 (Square brackets indicate name in SCF output, whereas a 'c' in
 the SCF output indicates the quantity has converged.)

Symmetries present (total): 6

  ( 1  1  0)  ( 1  0  0)  ( 0  1  0)  ( 0 -1  0)  (-1  0  0)  (-1 -1  0)
  ( 0 -1  0)  ( 0  1  0)  (-1 -1  0)  (-1  0  0)  ( 1  1  0)  ( 1  0  0)
  ( 0  0  1)  ( 0  0  1)  ( 0  0  1)  ( 0  0  1)  ( 0  0  1)  ( 0  0  1)
Note: your k-points are not as symmetric as your crystal!

200 k-points: 10 x 10 x 2 Monkhorst-Pack grid
55 k-points in the irreducible part of the Brillouin zone
       k-points in crystal coordinates                weights
   0:     0.05000000   -0.05000000   -0.25000000          2/200
   1:     0.05000000   -0.05000000    0.25000000          2/200
   2:     0.05000000    0.05000000    0.25000000          4/200
   3:     0.15000000   -0.15000000   -0.25000000          2/200
   4:     0.15000000   -0.15000000    0.25000000          2/200
   5:     0.15000000   -0.05000000   -0.25000000          4/200
   6:     0.15000000   -0.05000000    0.25000000          4/200
   7:     0.15000000    0.05000000   -0.25000000          4/200
   8:     0.15000000    0.05000000    0.25000000          4/200
   9:     0.15000000    0.15000000    0.25000000          4/200
          ...
  54:     0.45000000    0.45000000    0.25000000          4/200

Wave functions: Plane wave expansion
  Cutoff energy: 600.000 eV
  Number of coefficients (min, max): 4457, 4496
  Pulay-stress correction: 0.000000 eV/Ang^3 (de/decut=0.000000)
  Using Numpy's FFT
  ScaLapack parameters: grid=1x1, blocksize=None
  Wavefunction extrapolation:
    Improved wavefunction reuse through dual PAW basis 

Occupation numbers: Fermi-Dirac:
  width: 0.1000  # eV
 

Eigensolver
   Davidson(niter=2) 

Densities:
  Coarse grid: 20*20*80 grid
  Fine grid: 40*40*160 grid
  Total Charge: 0.000000 

Density mixing:
  Method: separate
  Backend: pulay
  Linear mixing parameter: 0.05
  old densities: 5
  Damping of long wavelength oscillations: 50 

Hamiltonian:
  XC and Coulomb potentials evaluated on a 40*40*160 grid
  Using the PBE Exchange-Correlation functional
  External potential:
    NoExternalPotential
 

XC parameters: PBE with 2 nearest neighbor stencil

Memory estimate:
  Process memory now: 438.72 MiB
  Calculator: 203.08 MiB
    Density: 14.73 MiB
      Arrays: 6.35 MiB
      Localized functions: 5.94 MiB
      Mixer: 2.44 MiB
    Hamiltonian: 4.30 MiB
      Arrays: 4.15 MiB
      XC: 0.00 MiB
      Poisson: 0.00 MiB
      vbar: 0.15 MiB
    Wavefunctions: 184.06 MiB
      Arrays psit_nG: 135.83 MiB
      Eigensolver: 3.01 MiB
      Projections: 2.66 MiB
      Projectors: 37.56 MiB
      PW-descriptor: 4.99 MiB

Total number of cores used: 1

Number of atoms: 6
Number of atomic orbitals: 42
Number of bands in calculation: 36
Number of valence electrons: 52
Bands to converge: occupied

... initialized

Initializing position-dependent things.

Density initialized from atomic densities
Creating initial wave functions:
  36 bands from LCAO basis set

                  
                  
                  
                  
                  
       Te         
                  
                  
                  
                  
                  
                  
         Te       
                  
                  
       W          
                  
                  
                  
                  
                  
                  
                  
         W        
                  
         Te       
                  
                  
                  
                  
                  
                  
                  
                  
       Te         
                  
                  
                  
                  

Positions:
   0 W      1.694064    0.978068    3.372840    ( 0.0000,  0.0000,  0.0000)
   1 W      1.694064   -0.978068   10.118520    ( 0.0000,  0.0000,  0.0000)
   2 Te     1.694064    0.978068   11.737483    ( 0.0000,  0.0000,  0.0000)
   3 Te     1.694064   -0.978068   -4.991803    ( 0.0000,  0.0000,  0.0000)
   4 Te     1.694064    0.978068    1.753877    ( 0.0000,  0.0000,  0.0000)
   5 Te     1.694064   -0.978068   18.483163    ( 0.0000,  0.0000,  0.0000)

Unit cell:
           periodic     x           y           z      points  spacing
  1. axis:    yes    1.694064   -2.934205    0.000000    20     0.1467
  2. axis:    yes    1.694064    2.934205    0.000000    20     0.1467
  3. axis:    yes    0.000000    0.000000   13.491360    80     0.1686

  Lengths:   3.388128   3.388128  13.491360
  Angles:   90.000000  90.000000 120.000000

Effective grid spacing dv^(1/3) = 0.1612

     iter     time        total  log10-change:
                         energy   eigst   dens
iter:   1 15:56:37    14.596200
iter:   2 15:56:48    17.513260   -0.62  -0.90
iter:   3 15:57:00    19.447140   -1.05  -1.07
iter:   4 15:57:12    19.986091   -1.40  -1.27
iter:   5 15:57:23    20.315699   -1.60  -1.41
iter:   6 15:57:34    20.318409   -2.53  -1.88
iter:   7 15:57:46    20.319846c  -3.50  -1.91
iter:   8 15:57:58    20.300944c  -2.92  -1.93
iter:   9 15:58:10    20.304875c  -2.61  -2.02
iter:  10 15:58:21    20.309785c  -3.81  -2.38
iter:  11 15:58:34    20.312336c  -3.84  -2.59
iter:  12 15:58:45    20.312458c  -4.80  -2.78
iter:  13 15:58:57    20.312673c  -4.55  -2.97
iter:  14 15:59:08    20.312586c  -4.86  -3.22
iter:  15 15:59:19    20.312609c  -5.96  -3.28
iter:  16 15:59:30    20.312625c  -6.46  -3.36
iter:  17 15:59:41    20.312632c  -6.28  -3.43
iter:  18 15:59:52    20.312624c  -6.71  -3.59
iter:  19 16:00:03    20.312595c  -6.15  -3.70
iter:  20 16:00:14    20.312625c  -6.84  -3.95
iter:  21 16:00:25    20.312628c  -7.52c -4.08c

Converged after 21 iterations.

Dipole moment: (0.000000, 0.000000, -0.221070) |e|*Ang

Energy contributions relative to reference atoms: (reference = -1616706.077045)

Kinetic:       +659.940847
Potential:     -549.219605
External:        +0.000000
XC:             -88.739074
Entropy (-ST):   -0.098354
Local:           -1.620363
SIC:             +0.000000
--------------------------
Free energy:    +20.263451
Extrapolated:   +20.312628

Showing only first 2 kpts
 Kpt  Band  Eigenvalues  Occupancy
  0    24      9.30888    1.99999
  0    25     10.45316    1.60739
  0    26     12.45916    0.00000
  0    27     12.60464    0.00000

  1    24      9.30888    1.99999
  1    25     10.45316    1.60739
  1    26     12.45916    0.00000
  1    27     12.60464    0.00000


Fermi level: 10.59411

No gap
No difference between direct/indirect transitions
Timing:                              incl.     excl.
-----------------------------------------------------------
Hamiltonian:                         0.184     0.002   0.0% |
 Atomic:                             0.111     0.001   0.0% |
  XC Correction:                     0.111     0.111   0.0% |
 Calculate atomic Hamiltonians:      0.011     0.011   0.0% |
 Communicate:                        0.000     0.000   0.0% |
 Initialize Hamiltonian:             0.000     0.000   0.0% |
 Poisson:                            0.000     0.000   0.0% |
 XC 3D grid:                         0.060     0.060   0.0% |
LCAO initialization:                10.444     0.051   0.0% |
 LCAO eigensolver:                   3.794     0.002   0.0% |
  Calculate projections:             0.004     0.004   0.0% |
  DenseAtomicCorrection:             0.012     0.012   0.0% |
  Distribute overlap matrix:         0.001     0.001   0.0% |
  Orbital Layouts:                   1.994     1.994   0.8% |
  Potential matrix:                  0.251     0.251   0.1% |
  Sum over cells:                    1.529     1.529   0.6% |
 LCAO to grid:                       6.234     6.234   2.5% ||
 Set positions (LCAO WFS):           0.365     0.055   0.0% |
  Basic WFS set positions:           0.000     0.000   0.0% |
  Basis functions set positions:     0.000     0.000   0.0% |
  P tci:                             0.200     0.200   0.1% |
  ST tci:                            0.105     0.105   0.0% |
  mktci:                             0.004     0.004   0.0% |
PWDescriptor:                        0.037     0.037   0.0% |
SCF-cycle:                         239.106     0.367   0.1% |
 Davidson:                         219.038    23.799   9.5% |---|
  Apply H:                          42.293    41.798  16.7% |------|
   HMM T:                            0.495     0.495   0.2% |
  Subspace diag:                    47.741     0.066   0.0% |
   calc_h_matrix:                   44.425     1.838   0.7% |
    Apply H:                        42.587    42.058  16.8% |------|
     HMM T:                          0.528     0.528   0.2% |
   diagonalize:                      0.414     0.414   0.2% |
   rotate_psi:                       2.836     2.836   1.1% |
  calc. matrices:                   92.487     9.814   3.9% |-|
   Apply H:                         82.673    81.682  32.7% |------------|
    HMM T:                           0.990     0.990   0.4% |
  diagonalize:                       7.494     7.494   3.0% ||
  rotate_psi:                        5.224     5.224   2.1% ||
 Density:                           15.888     0.000   0.0% |
  Atomic density matrices:           0.079     0.079   0.0% |
  Mix:                               1.624     1.624   0.6% |
  Multipole moments:                 0.002     0.002   0.0% |
  Pseudo density:                   14.183    14.145   5.7% |-|
   Symmetrize density:               0.038     0.038   0.0% |
 Hamiltonian:                        3.458     0.016   0.0% |
  Atomic:                            2.278     0.010   0.0% |
   XC Correction:                    2.268     2.268   0.9% |
  Calculate atomic Hamiltonians:     0.177     0.177   0.1% |
  Communicate:                       0.000     0.000   0.0% |
  Poisson:                           0.011     0.011   0.0% |
  XC 3D grid:                        0.976     0.976   0.4% |
 Orthonormalize:                     0.355     0.003   0.0% |
  calc_s_matrix:                     0.047     0.047   0.0% |
  inverse-cholesky:                  0.006     0.006   0.0% |
  projections:                       0.227     0.227   0.1% |
  rotate_psi_s:                      0.071     0.071   0.0% |
Set symmetry:                        0.004     0.004   0.0% |
Other:                               0.317     0.317   0.1% |
-----------------------------------------------------------
Total:                                       250.092 100.0%

Memory usage: 460.29 MiB
Date: Mon Apr  7 16:00:25 2025
