
  ___ ___ ___ _ _ _  
 |   |   |_  | | | | 
 | | | | | . | | | | 
 |__ |  _|___|_____|  25.1.0
 |___|_|             

User:   georgios-vourvachakis@georgios-vourvachakis-82K2
Date:   Mon Apr  7 16:04:45 2025
Arch:   x86_64
Pid:    9554
CWD:    /home/georgios-vourvachakis/Desktop/DFT_codes
Python: 3.12.3
gpaw:   /home/georgios-vourvachakis/Desktop/DFT_codes/.venv/lib/python3.12/site-packages/gpaw
_gpaw:  /home/georgios-vourvachakis/Desktop/DFT_codes/.venv/lib/python3.12/site-packages/
        _gpaw.cpython-312-x86_64-linux-gnu.so
ase:    /home/georgios-vourvachakis/Desktop/DFT_codes/.venv/lib/python3.12/site-packages/ase (version 3.24.0)
numpy:  /home/georgios-vourvachakis/Desktop/DFT_codes/.venv/lib/python3.12/site-packages/numpy (version 2.2.3)
scipy:  /home/georgios-vourvachakis/Desktop/DFT_codes/.venv/lib/python3.12/site-packages/scipy (version 1.15.1)
libxc:  5.2.3
units:  Angstrom and eV
cores: 1
OpenMP: False
OMP_NUM_THREADS: 1

Input parameters:
  kpts: [10 10  2]
  mode: {ecut: 600.0,
         name: pw}
  xc: PBE

System changes: positions, numbers, cell, pbc, initial_charges, initial_magmoms 

Initialize ...

species:
  W:
    name: Tungsten
    id: 3ed563b7d19992259c4d7db283f2ff78
    Z: 74.0
    valence: 14
    core: 60
    charge: 0.0
    file: /home/georgios-vourvachakis/Desktop/DFT_codes/gpaw_datasets/gpaw-setups-0.9.20000/W.PBE.gz
    compensation charges: {type: gauss,
                           rc: 0.40,
                           lmax: 2}
    cutoffs: {filter: 2.36,
              core: 3.02}
    projectors:
      #              energy  rcut
      - 5s(2.00)   -78.830   1.344
      - 6s(2.00)    -5.697   1.344
      - 5p(6.00)   -43.233   1.355
      - 6p(0.00)    -1.367   1.355
      - 5d(4.00)    -4.494   1.228
      -  d          22.717   1.228
  
    # Using partial waves for W as LCAO basis

  Te:
    name: Tellurium
    id: e44b9ef4772d7e5a1c6a47e6d6496588
    Z: 52.0
    valence: 6
    core: 46
    charge: 0.0
    file: /home/georgios-vourvachakis/Desktop/DFT_codes/gpaw_datasets/gpaw-setups-0.9.20000/Te.PBE.gz
    compensation charges: {type: gauss,
                           rc: 0.36,
                           lmax: 2}
    cutoffs: {filter: 2.09,
              core: 3.17}
    projectors:
      #              energy  rcut
      - 5s(2.00)   -15.089   1.180
      - 5p(4.00)    -5.955   1.196
      -  s          12.123   1.180
      -  p          21.256   1.196
      -  d           0.000   1.238
  
    # Using partial waves for Te as LCAO basis

Reference energy: -1616706.077045  # eV

Spin-paired calculation

Convergence criteria:
 Maximum [total energy] change in last 3 cyles: 0.0005 eV / valence electron
 Maximum integral of absolute [dens]ity change: 0.0001 electrons / valence electron
 Maximum integral of absolute [eigenst]ate change: 4e-08 eV^2 / valence electron
 Maximum number of scf [iter]ations: 333
 (Square brackets indicate name in SCF output, whereas a 'c' in
 the SCF output indicates the quantity has converged.)

Symmetries present (total): 6

  ( 1  1  0)  ( 1  0  0)  ( 0  1  0)  ( 0 -1  0)  (-1  0  0)  (-1 -1  0)
  ( 0 -1  0)  ( 0  1  0)  (-1 -1  0)  (-1  0  0)  ( 1  1  0)  ( 1  0  0)
  ( 0  0  1)  ( 0  0  1)  ( 0  0  1)  ( 0  0  1)  ( 0  0  1)  ( 0  0  1)
Note: your k-points are not as symmetric as your crystal!

200 k-points: 10 x 10 x 2 Monkhorst-Pack grid
55 k-points in the irreducible part of the Brillouin zone
       k-points in crystal coordinates                weights
   0:     0.05000000   -0.05000000   -0.25000000          2/200
   1:     0.05000000   -0.05000000    0.25000000          2/200
   2:     0.05000000    0.05000000    0.25000000          4/200
   3:     0.15000000   -0.15000000   -0.25000000          2/200
   4:     0.15000000   -0.15000000    0.25000000          2/200
   5:     0.15000000   -0.05000000   -0.25000000          4/200
   6:     0.15000000   -0.05000000    0.25000000          4/200
   7:     0.15000000    0.05000000   -0.25000000          4/200
   8:     0.15000000    0.05000000    0.25000000          4/200
   9:     0.15000000    0.15000000    0.25000000          4/200
          ...
  54:     0.45000000    0.45000000    0.25000000          4/200

Wave functions: Plane wave expansion
  Cutoff energy: 600.000 eV
  Number of coefficients (min, max): 4864, 4948
  Pulay-stress correction: 0.000000 eV/Ang^3 (de/decut=0.000000)
  Using Numpy's FFT
  ScaLapack parameters: grid=1x1, blocksize=None
  Wavefunction extrapolation:
    Improved wavefunction reuse through dual PAW basis 

Occupation numbers: Fermi-Dirac:
  width: 0.1000  # eV
 

Eigensolver
   Davidson(niter=2) 

Densities:
  Coarse grid: 20*20*80 grid
  Fine grid: 40*40*160 grid
  Total Charge: 0.000000 

Density mixing:
  Method: separate
  Backend: pulay
  Linear mixing parameter: 0.05
  old densities: 5
  Damping of long wavelength oscillations: 50 

Hamiltonian:
  XC and Coulomb potentials evaluated on a 40*40*160 grid
  Using the PBE Exchange-Correlation functional
  External potential:
    NoExternalPotential
 

XC parameters: PBE with 2 nearest neighbor stencil

Memory estimate:
  Process memory now: 473.98 MiB
  Calculator: 221.78 MiB
    Density: 15.33 MiB
      Arrays: 6.35 MiB
      Localized functions: 6.54 MiB
      Mixer: 2.44 MiB
    Hamiltonian: 4.31 MiB
      Arrays: 4.15 MiB
      XC: 0.00 MiB
      Poisson: 0.00 MiB
      vbar: 0.16 MiB
    Wavefunctions: 202.14 MiB
      Arrays psit_nG: 149.49 MiB
      Eigensolver: 3.29 MiB
      Projections: 2.66 MiB
      Projectors: 41.32 MiB
      PW-descriptor: 5.37 MiB

Total number of cores used: 1

Number of atoms: 6
Number of atomic orbitals: 42
Number of bands in calculation: 36
Number of valence electrons: 52
Bands to converge: occupied

... initialized

Initializing position-dependent things.

Density initialized from atomic densities
Creating initial wave functions:
  36 bands from LCAO basis set

                  
                  
                  
                  
                  
       Te         
                  
                  
                  
                  
                  
                  
         Te       
                  
                  
                  
       W          
                  
                  
                  
                  
                  
                  
         W        
                  
         Te       
                  
                  
                  
                  
                  
                  
                  
                  
                  
       Te         
                  
                  
                  
                  

Positions:
   0 W      1.748951    1.009758    3.482120    ( 0.0000,  0.0000,  0.0000)
   1 W      1.748951   -1.009758   10.446359    ( 0.0000,  0.0000,  0.0000)
   2 Te     1.748951    1.009758   12.117776    ( 0.0000,  0.0000,  0.0000)
   3 Te     1.748951   -1.009758   -5.153537    ( 0.0000,  0.0000,  0.0000)
   4 Te     1.748951    1.009758    1.810702    ( 0.0000,  0.0000,  0.0000)
   5 Te     1.748951   -1.009758   19.082016    ( 0.0000,  0.0000,  0.0000)

Unit cell:
           periodic     x           y           z      points  spacing
  1. axis:    yes    1.748951   -3.029273    0.000000    20     0.1515
  2. axis:    yes    1.748951    3.029273    0.000000    20     0.1515
  3. axis:    yes    0.000000    0.000000   13.928479    80     0.1741

  Lengths:   3.497903   3.497903  13.928479
  Angles:   90.000000  90.000000 120.000000

Effective grid spacing dv^(1/3) = 0.1665

     iter     time        total  log10-change:
                         energy   eigst   dens
iter:   1 16:05:06     5.156179
iter:   2 16:05:17     7.384774   -0.67  -0.94
iter:   3 16:05:28     8.796971   -1.19  -1.10
iter:   4 16:05:40     9.392805   -1.45  -1.24
iter:   5 16:05:51     9.704633   -1.62  -1.41
iter:   6 16:06:03     9.707999   -2.44  -1.85
iter:   7 16:06:14     9.713461c  -3.42  -1.90
iter:   8 16:06:26     9.705182c  -2.80  -1.96
iter:   9 16:06:37     9.707394c  -3.19  -2.26
iter:  10 16:06:49     9.706489c  -4.01  -2.60
iter:  11 16:07:00     9.707105c  -4.23  -2.63
iter:  12 16:07:12     9.707491c  -4.20  -2.83
iter:  13 16:07:23     9.707581c  -4.82  -3.06
iter:  14 16:07:35     9.707796c  -5.68  -3.15
iter:  15 16:07:47     9.707753c  -5.29  -3.24
iter:  16 16:07:58     9.707835c  -6.03  -3.56
iter:  17 16:08:10     9.707800c  -7.02  -3.64
iter:  18 16:08:21     9.707795c  -6.07  -3.66
iter:  19 16:08:33     9.707833c  -6.90  -3.86
iter:  20 16:08:44     9.707833c  -7.92c -3.93
iter:  21 16:08:56     9.707836c  -7.49c -3.96
iter:  22 16:09:07     9.707848c  -7.70c -4.02c

Converged after 22 iterations.

Dipole moment: (0.000000, 0.000000, -0.187256) |e|*Ang

Energy contributions relative to reference atoms: (reference = -1616706.077045)

Kinetic:       +561.533599
Potential:     -471.957100
External:        +0.000000
XC:             -78.283274
Entropy (-ST):   -0.081081
Local:           -1.544836
SIC:             +0.000000
--------------------------
Free energy:     +9.667308
Extrapolated:    +9.707848

Showing only first 2 kpts
 Kpt  Band  Eigenvalues  Occupancy
  0    24      7.90774    2.00000
  0    25      9.03838    1.74164
  0    26     10.80614    0.00000
  0    27     10.93045    0.00000

  1    24      7.90774    2.00000
  1    25      9.03838    1.74164
  1    26     10.80614    0.00000
  1    27     10.93045    0.00000


Fermi level: 9.22920

No gap
No difference between direct/indirect transitions
Timing:                              incl.     excl.
-----------------------------------------------------------
Hamiltonian:                         0.186     0.001   0.0% |
 Atomic:                             0.112     0.001   0.0% |
  XC Correction:                     0.111     0.111   0.0% |
 Calculate atomic Hamiltonians:      0.011     0.011   0.0% |
 Communicate:                        0.000     0.000   0.0% |
 Initialize Hamiltonian:             0.000     0.000   0.0% |
 Poisson:                            0.000     0.000   0.0% |
 XC 3D grid:                         0.062     0.062   0.0% |
LCAO initialization:                10.091     0.052   0.0% |
 LCAO eigensolver:                   4.410     0.001   0.0% |
  Calculate projections:             0.005     0.005   0.0% |
  DenseAtomicCorrection:             0.010     0.010   0.0% |
  Distribute overlap matrix:         0.001     0.001   0.0% |
  Orbital Layouts:                   2.235     2.235   0.9% |
  Potential matrix:                  0.220     0.220   0.1% |
  Sum over cells:                    1.939     1.939   0.7% |
 LCAO to grid:                       5.303     5.303   2.0% ||
 Set positions (LCAO WFS):           0.327     0.053   0.0% |
  Basic WFS set positions:           0.000     0.000   0.0% |
  Basis functions set positions:     0.000     0.000   0.0% |
  P tci:                             0.164     0.164   0.1% |
  ST tci:                            0.105     0.105   0.0% |
  mktci:                             0.004     0.004   0.0% |
PWDescriptor:                        0.037     0.037   0.0% |
SCF-cycle:                         251.510     0.380   0.1% |
 Davidson:                         230.424    26.801  10.2% |---|
  Apply H:                          44.408    43.895  16.7% |------|
   HMM T:                            0.512     0.512   0.2% |
  Subspace diag:                    50.335     0.066   0.0% |
   calc_h_matrix:                   46.658     2.076   0.8% |
    Apply H:                        44.582    44.023  16.8% |------|
     HMM T:                          0.559     0.559   0.2% |
   diagonalize:                      0.431     0.431   0.2% |
   rotate_psi:                       3.180     3.180   1.2% |
  calc. matrices:                   97.155    11.133   4.2% |-|
   Apply H:                         86.022    85.007  32.4% |------------|
    HMM T:                           1.014     1.014   0.4% |
  diagonalize:                       5.784     5.784   2.2% ||
  rotate_psi:                        5.942     5.942   2.3% ||
 Density:                           16.589     0.000   0.0% |
  Atomic density matrices:           0.085     0.085   0.0% |
  Mix:                               1.618     1.618   0.6% |
  Multipole moments:                 0.002     0.002   0.0% |
  Pseudo density:                   14.884    14.844   5.7% |-|
   Symmetrize density:               0.040     0.040   0.0% |
 Hamiltonian:                        3.751     0.017   0.0% |
  Atomic:                            2.329     0.011   0.0% |
   XC Correction:                    2.319     2.319   0.9% |
  Calculate atomic Hamiltonians:     0.249     0.249   0.1% |
  Communicate:                       0.000     0.000   0.0% |
  Poisson:                           0.012     0.012   0.0% |
  XC 3D grid:                        1.143     1.143   0.4% |
 Orthonormalize:                     0.367     0.003   0.0% |
  calc_s_matrix:                     0.051     0.051   0.0% |
  inverse-cholesky:                  0.006     0.006   0.0% |
  projections:                       0.231     0.231   0.1% |
  rotate_psi_s:                      0.076     0.076   0.0% |
Set symmetry:                        0.004     0.004   0.0% |
Other:                               0.287     0.287   0.1% |
-----------------------------------------------------------
Total:                                       262.114 100.0%

Memory usage: 490.64 MiB
Date: Mon Apr  7 16:09:07 2025
