
  ___ ___ ___ _ _ _  
 |   |   |_  | | | | 
 | | | | | . | | | | 
 |__ |  _|___|_____|  25.1.0
 |___|_|             

User:   georgios-vourvachakis@georgios-vourvachakis-82K2
Date:   Mon Apr  7 16:09:07 2025
Arch:   x86_64
Pid:    9554
CWD:    /home/georgios-vourvachakis/Desktop/DFT_codes
Python: 3.12.3
gpaw:   /home/georgios-vourvachakis/Desktop/DFT_codes/.venv/lib/python3.12/site-packages/gpaw
_gpaw:  /home/georgios-vourvachakis/Desktop/DFT_codes/.venv/lib/python3.12/site-packages/
        _gpaw.cpython-312-x86_64-linux-gnu.so
ase:    /home/georgios-vourvachakis/Desktop/DFT_codes/.venv/lib/python3.12/site-packages/ase (version 3.24.0)
numpy:  /home/georgios-vourvachakis/Desktop/DFT_codes/.venv/lib/python3.12/site-packages/numpy (version 2.2.3)
scipy:  /home/georgios-vourvachakis/Desktop/DFT_codes/.venv/lib/python3.12/site-packages/scipy (version 1.15.1)
libxc:  5.2.3
units:  Angstrom and eV
cores: 1
OpenMP: False
OMP_NUM_THREADS: 1

Input parameters:
  kpts: [10 10  2]
  mode: {ecut: 600.0,
         name: pw}
  xc: PBE

System changes: positions, numbers, cell, pbc, initial_charges, initial_magmoms 

Initialize ...

species:
  W:
    name: Tungsten
    id: 3ed563b7d19992259c4d7db283f2ff78
    Z: 74.0
    valence: 14
    core: 60
    charge: 0.0
    file: /home/georgios-vourvachakis/Desktop/DFT_codes/gpaw_datasets/gpaw-setups-0.9.20000/W.PBE.gz
    compensation charges: {type: gauss,
                           rc: 0.40,
                           lmax: 2}
    cutoffs: {filter: 2.36,
              core: 3.02}
    projectors:
      #              energy  rcut
      - 5s(2.00)   -78.830   1.344
      - 6s(2.00)    -5.697   1.344
      - 5p(6.00)   -43.233   1.355
      - 6p(0.00)    -1.367   1.355
      - 5d(4.00)    -4.494   1.228
      -  d          22.717   1.228
  
    # Using partial waves for W as LCAO basis

  Te:
    name: Tellurium
    id: e44b9ef4772d7e5a1c6a47e6d6496588
    Z: 52.0
    valence: 6
    core: 46
    charge: 0.0
    file: /home/georgios-vourvachakis/Desktop/DFT_codes/gpaw_datasets/gpaw-setups-0.9.20000/Te.PBE.gz
    compensation charges: {type: gauss,
                           rc: 0.36,
                           lmax: 2}
    cutoffs: {filter: 2.09,
              core: 3.17}
    projectors:
      #              energy  rcut
      - 5s(2.00)   -15.089   1.180
      - 5p(4.00)    -5.955   1.196
      -  s          12.123   1.180
      -  p          21.256   1.196
      -  d           0.000   1.238
  
    # Using partial waves for Te as LCAO basis

Reference energy: -1616706.077045  # eV

Spin-paired calculation

Convergence criteria:
 Maximum [total energy] change in last 3 cyles: 0.0005 eV / valence electron
 Maximum integral of absolute [dens]ity change: 0.0001 electrons / valence electron
 Maximum integral of absolute [eigenst]ate change: 4e-08 eV^2 / valence electron
 Maximum number of scf [iter]ations: 333
 (Square brackets indicate name in SCF output, whereas a 'c' in
 the SCF output indicates the quantity has converged.)

Symmetries present (total): 6

  ( 1  1  0)  ( 1  0  0)  ( 0  1  0)  ( 0 -1  0)  (-1  0  0)  (-1 -1  0)
  ( 0 -1  0)  ( 0  1  0)  (-1 -1  0)  (-1  0  0)  ( 1  1  0)  ( 1  0  0)
  ( 0  0  1)  ( 0  0  1)  ( 0  0  1)  ( 0  0  1)  ( 0  0  1)  ( 0  0  1)
Note: your k-points are not as symmetric as your crystal!

200 k-points: 10 x 10 x 2 Monkhorst-Pack grid
55 k-points in the irreducible part of the Brillouin zone
       k-points in crystal coordinates                weights
   0:     0.05000000   -0.05000000   -0.25000000          2/200
   1:     0.05000000   -0.05000000    0.25000000          2/200
   2:     0.05000000    0.05000000    0.25000000          4/200
   3:     0.15000000   -0.15000000   -0.25000000          2/200
   4:     0.15000000   -0.15000000    0.25000000          2/200
   5:     0.15000000   -0.05000000   -0.25000000          4/200
   6:     0.15000000   -0.05000000    0.25000000          4/200
   7:     0.15000000    0.05000000   -0.25000000          4/200
   8:     0.15000000    0.05000000    0.25000000          4/200
   9:     0.15000000    0.15000000    0.25000000          4/200
          ...
  54:     0.45000000    0.45000000    0.25000000          4/200

Wave functions: Plane wave expansion
  Cutoff energy: 600.000 eV
  Number of coefficients (min, max): 5122, 5191
  Pulay-stress correction: 0.000000 eV/Ang^3 (de/decut=0.000000)
  Using Numpy's FFT
  ScaLapack parameters: grid=1x1, blocksize=None
  Wavefunction extrapolation:
    Improved wavefunction reuse through dual PAW basis 

Occupation numbers: Fermi-Dirac:
  width: 0.1000  # eV
 

Eigensolver
   Davidson(niter=2) 

Densities:
  Coarse grid: 21*21*80 grid
  Fine grid: 42*42*160 grid
  Total Charge: 0.000000 

Density mixing:
  Method: separate
  Backend: pulay
  Linear mixing parameter: 0.05
  old densities: 5
  Damping of long wavelength oscillations: 50 

Hamiltonian:
  XC and Coulomb potentials evaluated on a 42*42*160 grid
  Using the PBE Exchange-Correlation functional
  External potential:
    NoExternalPotential
 

XC parameters: PBE with 2 nearest neighbor stencil

Memory estimate:
  Process memory now: 490.64 MiB
  Calculator: 233.22 MiB
    Density: 16.53 MiB
      Arrays: 7.00 MiB
      Localized functions: 6.84 MiB
      Mixer: 2.69 MiB
    Hamiltonian: 4.74 MiB
      Arrays: 4.58 MiB
      XC: 0.00 MiB
      Poisson: 0.00 MiB
      vbar: 0.17 MiB
    Wavefunctions: 211.94 MiB
      Arrays psit_nG: 156.83 MiB
      Eigensolver: 3.45 MiB
      Projections: 2.66 MiB
      Projectors: 43.30 MiB
      PW-descriptor: 5.70 MiB

Total number of cores used: 1

Number of atoms: 6
Number of atomic orbitals: 42
Number of bands in calculation: 36
Number of valence electrons: 52
Bands to converge: occupied

... initialized

Initializing position-dependent things.

Density initialized from atomic densities
Creating initial wave functions:
  36 bands from LCAO basis set

                  
                  
                  
                  
                  
       Te         
                  
                  
                  
                  
                  
                  
         Te       
                  
                  
                  
       W          
                  
                  
                  
                  
                  
                  
         W        
                  
         Te       
                  
                  
                  
                  
                  
                  
                  
                  
                  
       Te         
                  
                  
                  
                  

Positions:
   0 W      1.776395    1.025602    3.536760    ( 0.0000,  0.0000,  0.0000)
   1 W      1.776395   -1.025602   10.610279    ( 0.0000,  0.0000,  0.0000)
   2 Te     1.776395    1.025602   12.307923    ( 0.0000,  0.0000,  0.0000)
   3 Te     1.776395   -1.025602   -5.234404    ( 0.0000,  0.0000,  0.0000)
   4 Te     1.776395    1.025602    1.839115    ( 0.0000,  0.0000,  0.0000)
   5 Te     1.776395   -1.025602   19.381442    ( 0.0000,  0.0000,  0.0000)

Unit cell:
           periodic     x           y           z      points  spacing
  1. axis:    yes    1.776395   -3.076807    0.000000    21     0.1465
  2. axis:    yes    1.776395    3.076807    0.000000    21     0.1465
  3. axis:    yes    0.000000    0.000000   14.147038    80     0.1768

  Lengths:   3.552790   3.552790  14.147038
  Angles:   90.000000  90.000000 120.000000

Effective grid spacing dv^(1/3) = 0.1637

     iter     time        total  log10-change:
                         energy   eigst   dens
iter:   1 16:09:29     1.115578
iter:   2 16:09:41     3.040001   -0.69  -0.96
iter:   3 16:09:53     4.255022   -1.25  -1.11
iter:   4 16:10:06     4.868403   -1.49  -1.23
iter:   5 16:10:18     5.160468   -1.63  -1.41
iter:   6 16:10:31     5.162750   -2.39  -1.83
iter:   7 16:10:43     5.171999c  -3.32  -1.90
iter:   8 16:10:56     5.161372c  -2.85  -2.00
iter:   9 16:11:08     5.165153c  -3.20  -2.26
iter:  10 16:11:20     5.163958c  -3.96  -2.59
iter:  11 16:11:33     5.165648c  -3.92  -2.61
iter:  12 16:11:45     5.165618c  -4.82  -3.01
iter:  13 16:11:58     5.165724c  -5.13  -3.09
iter:  14 16:12:10     5.165778c  -5.67  -3.22
iter:  15 16:12:22     5.165769c  -5.49  -3.27
iter:  16 16:12:35     5.165778c  -6.63  -3.60
iter:  17 16:12:47     5.165780c  -6.14  -3.67
iter:  18 16:12:59     5.165763c  -7.13  -3.73
iter:  19 16:13:12     5.165802c  -7.03  -3.72
iter:  20 16:13:24     5.165789c  -6.61  -3.78
iter:  21 16:13:37     5.165791c  -7.31  -4.04c
iter:  22 16:13:49     5.165799c  -7.69c -4.26c

Converged after 22 iterations.

Dipole moment: (0.000000, 0.000000, -0.181713) |e|*Ang

Energy contributions relative to reference atoms: (reference = -1616706.077045)

Kinetic:       +515.461237
Potential:     -435.307643
External:        +0.000000
XC:             -73.443725
Entropy (-ST):   -0.072337
Local:           -1.507901
SIC:             +0.000000
--------------------------
Free energy:     +5.129631
Extrapolated:    +5.165799

Showing only first 2 kpts
 Kpt  Band  Eigenvalues  Occupancy
  0    24      7.30094    2.00000
  0    25      8.39545    1.77630
  0    26     10.05530    0.00000
  0    27     10.17068    0.00000

  1    24      7.30094    2.00000
  1    25      8.39545    1.77630
  1    26     10.05530    0.00000
  1    27     10.17068    0.00000


Fermi level: 8.60265

No gap
No difference between direct/indirect transitions
Timing:                              incl.     excl.
-----------------------------------------------------------
Hamiltonian:                         0.186     0.001   0.0% |
 Atomic:                             0.110     0.000   0.0% |
  XC Correction:                     0.109     0.109   0.0% |
 Calculate atomic Hamiltonians:      0.011     0.011   0.0% |
 Communicate:                        0.000     0.000   0.0% |
 Initialize Hamiltonian:             0.000     0.000   0.0% |
 Poisson:                            0.000     0.000   0.0% |
 XC 3D grid:                         0.064     0.064   0.0% |
LCAO initialization:                 9.910     0.049   0.0% |
 LCAO eigensolver:                   3.867     0.001   0.0% |
  Calculate projections:             0.004     0.004   0.0% |
  DenseAtomicCorrection:             0.010     0.010   0.0% |
  Distribute overlap matrix:         0.001     0.001   0.0% |
  Orbital Layouts:                   2.087     2.087   0.7% |
  Potential matrix:                  0.213     0.213   0.1% |
  Sum over cells:                    1.549     1.549   0.5% |
 LCAO to grid:                       5.653     5.653   2.0% ||
 Set positions (LCAO WFS):           0.341     0.047   0.0% |
  Basic WFS set positions:           0.000     0.000   0.0% |
  Basis functions set positions:     0.000     0.000   0.0% |
  P tci:                             0.186     0.186   0.1% |
  ST tci:                            0.104     0.104   0.0% |
  mktci:                             0.004     0.004   0.0% |
PWDescriptor:                        0.040     0.040   0.0% |
SCF-cycle:                         271.895     0.342   0.1% |
 Davidson:                         248.444    27.586   9.8% |---|
  Apply H:                          50.338    49.815  17.6% |------|
   HMM T:                            0.522     0.522   0.2% |
  Subspace diag:                    56.484     0.063   0.0% |
   calc_h_matrix:                   52.694     2.098   0.7% |
    Apply H:                        50.595    50.027  17.7% |------|
     HMM T:                          0.569     0.569   0.2% |
   diagonalize:                      0.442     0.442   0.2% |
   rotate_psi:                       3.285     3.285   1.2% |
  calc. matrices:                  102.774    11.137   3.9% |-|
   Apply H:                         91.636    90.622  32.1% |------------|
    HMM T:                           1.014     1.014   0.4% |
  diagonalize:                       5.313     5.313   1.9% ||
  rotate_psi:                        5.950     5.950   2.1% ||
 Density:                           18.826     0.000   0.0% |
  Atomic density matrices:           0.083     0.083   0.0% |
  Mix:                               1.505     1.505   0.5% |
  Multipole moments:                 0.002     0.002   0.0% |
  Pseudo density:                   17.237    17.193   6.1% |-|
   Symmetrize density:               0.044     0.044   0.0% |
 Hamiltonian:                        3.899     0.018   0.0% |
  Atomic:                            2.319     0.010   0.0% |
   XC Correction:                    2.309     2.309   0.8% |
  Calculate atomic Hamiltonians:     0.233     0.233   0.1% |
  Communicate:                       0.000     0.000   0.0% |
  Poisson:                           0.013     0.013   0.0% |
  XC 3D grid:                        1.316     1.316   0.5% |
 Orthonormalize:                     0.383     0.003   0.0% |
  calc_s_matrix:                     0.052     0.052   0.0% |
  inverse-cholesky:                  0.006     0.006   0.0% |
  projections:                       0.242     0.242   0.1% |
  rotate_psi_s:                      0.080     0.080   0.0% |
Set symmetry:                        0.004     0.004   0.0% |
Other:                               0.308     0.308   0.1% |
-----------------------------------------------------------
Total:                                       282.343 100.0%

Memory usage: 511.30 MiB
Date: Mon Apr  7 16:13:49 2025
