
  ___ ___ ___ _ _ _  
 |   |   |_  | | | | 
 | | | | | . | | | | 
 |__ |  _|___|_____|  25.1.0
 |___|_|             

User:   georgios-vourvachakis@georgios-vourvachakis-82K2
Date:   Mon Apr  7 16:23:57 2025
Arch:   x86_64
Pid:    9554
CWD:    /home/georgios-vourvachakis/Desktop/DFT_codes
Python: 3.12.3
gpaw:   /home/georgios-vourvachakis/Desktop/DFT_codes/.venv/lib/python3.12/site-packages/gpaw
_gpaw:  /home/georgios-vourvachakis/Desktop/DFT_codes/.venv/lib/python3.12/site-packages/
        _gpaw.cpython-312-x86_64-linux-gnu.so
ase:    /home/georgios-vourvachakis/Desktop/DFT_codes/.venv/lib/python3.12/site-packages/ase (version 3.24.0)
numpy:  /home/georgios-vourvachakis/Desktop/DFT_codes/.venv/lib/python3.12/site-packages/numpy (version 2.2.3)
scipy:  /home/georgios-vourvachakis/Desktop/DFT_codes/.venv/lib/python3.12/site-packages/scipy (version 1.15.1)
libxc:  5.2.3
units:  Angstrom and eV
cores: 1
OpenMP: False
OMP_NUM_THREADS: 1

Input parameters:
  kpts: [10 10  2]
  mode: {ecut: 600.0,
         name: pw}
  xc: PBE

System changes: positions, numbers, cell, pbc, initial_charges, initial_magmoms 

Initialize ...

species:
  W:
    name: Tungsten
    id: 3ed563b7d19992259c4d7db283f2ff78
    Z: 74.0
    valence: 14
    core: 60
    charge: 0.0
    file: /home/georgios-vourvachakis/Desktop/DFT_codes/gpaw_datasets/gpaw-setups-0.9.20000/W.PBE.gz
    compensation charges: {type: gauss,
                           rc: 0.40,
                           lmax: 2}
    cutoffs: {filter: 2.36,
              core: 3.02}
    projectors:
      #              energy  rcut
      - 5s(2.00)   -78.830   1.344
      - 6s(2.00)    -5.697   1.344
      - 5p(6.00)   -43.233   1.355
      - 6p(0.00)    -1.367   1.355
      - 5d(4.00)    -4.494   1.228
      -  d          22.717   1.228
  
    # Using partial waves for W as LCAO basis

  Te:
    name: Tellurium
    id: e44b9ef4772d7e5a1c6a47e6d6496588
    Z: 52.0
    valence: 6
    core: 46
    charge: 0.0
    file: /home/georgios-vourvachakis/Desktop/DFT_codes/gpaw_datasets/gpaw-setups-0.9.20000/Te.PBE.gz
    compensation charges: {type: gauss,
                           rc: 0.36,
                           lmax: 2}
    cutoffs: {filter: 2.09,
              core: 3.17}
    projectors:
      #              energy  rcut
      - 5s(2.00)   -15.089   1.180
      - 5p(4.00)    -5.955   1.196
      -  s          12.123   1.180
      -  p          21.256   1.196
      -  d           0.000   1.238
  
    # Using partial waves for Te as LCAO basis

Reference energy: -1616706.077045  # eV

Spin-paired calculation

Convergence criteria:
 Maximum [total energy] change in last 3 cyles: 0.0005 eV / valence electron
 Maximum integral of absolute [dens]ity change: 0.0001 electrons / valence electron
 Maximum integral of absolute [eigenst]ate change: 4e-08 eV^2 / valence electron
 Maximum number of scf [iter]ations: 333
 (Square brackets indicate name in SCF output, whereas a 'c' in
 the SCF output indicates the quantity has converged.)

Symmetries present (total): 6

  ( 1  1  0)  ( 1  0  0)  ( 0  1  0)  ( 0 -1  0)  (-1  0  0)  (-1 -1  0)
  ( 0 -1  0)  ( 0  1  0)  (-1 -1  0)  (-1  0  0)  ( 1  1  0)  ( 1  0  0)
  ( 0  0  1)  ( 0  0  1)  ( 0  0  1)  ( 0  0  1)  ( 0  0  1)  ( 0  0  1)
Note: your k-points are not as symmetric as your crystal!

200 k-points: 10 x 10 x 2 Monkhorst-Pack grid
55 k-points in the irreducible part of the Brillouin zone
       k-points in crystal coordinates                weights
   0:     0.05000000   -0.05000000   -0.25000000          2/200
   1:     0.05000000   -0.05000000    0.25000000          2/200
   2:     0.05000000    0.05000000    0.25000000          4/200
   3:     0.15000000   -0.15000000   -0.25000000          2/200
   4:     0.15000000   -0.15000000    0.25000000          2/200
   5:     0.15000000   -0.05000000   -0.25000000          4/200
   6:     0.15000000   -0.05000000    0.25000000          4/200
   7:     0.15000000    0.05000000   -0.25000000          4/200
   8:     0.15000000    0.05000000    0.25000000          4/200
   9:     0.15000000    0.15000000    0.25000000          4/200
          ...
  54:     0.45000000    0.45000000    0.25000000          4/200

Wave functions: Plane wave expansion
  Cutoff energy: 600.000 eV
  Number of coefficients (min, max): 5876, 5944
  Pulay-stress correction: 0.000000 eV/Ang^3 (de/decut=0.000000)
  Using Numpy's FFT
  ScaLapack parameters: grid=1x1, blocksize=None
  Wavefunction extrapolation:
    Improved wavefunction reuse through dual PAW basis 

Occupation numbers: Fermi-Dirac:
  width: 0.1000  # eV
 

Eigensolver
   Davidson(niter=2) 

Densities:
  Coarse grid: 24*24*84 grid
  Fine grid: 48*48*168 grid
  Total Charge: 0.000000 

Density mixing:
  Method: separate
  Backend: pulay
  Linear mixing parameter: 0.05
  old densities: 5
  Damping of long wavelength oscillations: 50 

Hamiltonian:
  XC and Coulomb potentials evaluated on a 48*48*168 grid
  Using the PBE Exchange-Correlation functional
  External potential:
    NoExternalPotential
 

XC parameters: PBE with 2 nearest neighbor stencil

Memory estimate:
  Process memory now: 535.86 MiB
  Calculator: 270.22 MiB
    Density: 21.13 MiB
      Arrays: 9.60 MiB
      Localized functions: 7.84 MiB
      Mixer: 3.69 MiB
    Hamiltonian: 6.47 MiB
      Arrays: 6.28 MiB
      XC: 0.00 MiB
      Poisson: 0.00 MiB
      vbar: 0.19 MiB
    Wavefunctions: 242.62 MiB
      Arrays psit_nG: 179.58 MiB
      Eigensolver: 3.92 MiB
      Projections: 2.66 MiB
      Projectors: 49.63 MiB
      PW-descriptor: 6.83 MiB

Total number of cores used: 1

Number of atoms: 6
Number of atomic orbitals: 42
Number of bands in calculation: 36
Number of valence electrons: 52
Bands to converge: occupied

... initialized

Initializing position-dependent things.

Density initialized from atomic densities
Creating initial wave functions:
  36 bands from LCAO basis set

                  
                  
                  
                  
                  
       Te         
                  
                  
                  
                  
                  
                  
                  
         Te       
                  
                  
                  
       W          
                  
                  
                  
                  
                  
                  
         W        
                  
                  
         Te       
                  
                  
                  
                  
                  
                  
                  
                  
                  
       Te         
                  
                  
                  
                  

Positions:
   0 W      1.858726    1.073136    3.700679    ( 0.0000,  0.0000,  0.0000)
   1 W      1.858726   -1.073136   11.102038    ( 0.0000,  0.0000,  0.0000)
   2 Te     1.858726    1.073136   12.878364    ( 0.0000,  0.0000,  0.0000)
   3 Te     1.858726   -1.073136   -5.477005    ( 0.0000,  0.0000,  0.0000)
   4 Te     1.858726    1.073136    1.924353    ( 0.0000,  0.0000,  0.0000)
   5 Te     1.858726   -1.073136   20.279722    ( 0.0000,  0.0000,  0.0000)

Unit cell:
           periodic     x           y           z      points  spacing
  1. axis:    yes    1.858726   -3.219409    0.000000    24     0.1341
  2. axis:    yes    1.858726    3.219409    0.000000    24     0.1341
  3. axis:    yes    0.000000    0.000000   14.802717    84     0.1762

  Lengths:   3.717453   3.717453  14.802717
  Angles:   90.000000  90.000000 120.000000

Effective grid spacing dv^(1/3) = 0.1541

     iter     time        total  log10-change:
                         energy   eigst   dens
iter:   1 16:24:22    -8.611362
iter:   2 16:24:37    -7.417823   -0.74  -1.02
iter:   3 16:24:51    -6.623560   -1.39  -1.13
iter:   4 16:25:06    -5.977885   -1.60  -1.21
iter:   5 16:25:20    -5.760183   -1.67  -1.42
iter:   6 16:25:34    -5.766024   -2.22  -1.80
iter:   7 16:25:49    -5.751913c  -2.89  -1.92
iter:   8 16:26:03    -5.759200c  -2.59  -1.97
iter:   9 16:26:17    -5.752306c  -3.51  -2.25
iter:  10 16:26:32    -5.751656c  -4.39  -2.58
iter:  11 16:26:46    -5.750983c  -4.28  -2.62
iter:  12 16:27:01    -5.750780c  -4.36  -2.78
iter:  13 16:27:15    -5.750538c  -4.97  -2.90
iter:  14 16:27:29    -5.750274c  -5.25  -3.03
iter:  15 16:27:44    -5.750099c  -5.69  -3.18
iter:  16 16:27:58    -5.750094c  -6.68  -3.43
iter:  17 16:28:13    -5.750112c  -5.76  -3.47
iter:  18 16:28:27    -5.750099c  -6.70  -3.74
iter:  19 16:28:42    -5.750105c  -7.49c -3.88
iter:  20 16:28:56    -5.750100c  -7.55c -3.97
iter:  21 16:29:11    -5.750085c  -7.01  -4.02c
iter:  22 16:29:25    -5.750088c  -7.96c -4.24c

Converged after 22 iterations.

Dipole moment: (-0.000000, 0.000000, -0.205015) |e|*Ang

Energy contributions relative to reference atoms: (reference = -1616706.077045)

Kinetic:       +389.551211
Potential:     -333.783708
External:        +0.000000
XC:             -60.301919
Entropy (-ST):   -0.055755
Local:           -1.187795
SIC:             +0.000000
--------------------------
Free energy:     -5.777965
Extrapolated:    -5.750088

Showing only first 2 kpts
 Kpt  Band  Eigenvalues  Occupancy
  0    24      5.77656    1.99998
  0    25      6.69218    1.80890
  0    26      8.06443    0.00002
  0    27      8.15526    0.00001

  1    24      5.77656    1.99998
  1    25      6.69218    1.80890
  1    26      8.06443    0.00002
  1    27      8.15526    0.00001


Fermi level: 6.91695

Gap: 0.286 eV
Transition (v -> c):
  (s=0, k=6, n=25, [0.15, -0.05, 0.25]) -> (s=0, k=11, n=26, [0.25, -0.25, 0.25])
Direct/indirect transitions are different
Direct gap: 0.520 eV
Transition at: (s=0, k=8, n=25, [0.15, 0.05, 0.25])
Timing:                              incl.     excl.
-----------------------------------------------------------
Hamiltonian:                         0.197     0.003   0.0% |
 Atomic:                             0.106     0.001   0.0% |
  XC Correction:                     0.106     0.106   0.0% |
 Calculate atomic Hamiltonians:      0.014     0.014   0.0% |
 Communicate:                        0.000     0.000   0.0% |
 Initialize Hamiltonian:             0.000     0.000   0.0% |
 Poisson:                            0.001     0.001   0.0% |
 XC 3D grid:                         0.073     0.073   0.0% |
LCAO initialization:                11.853     0.050   0.0% |
 LCAO eigensolver:                   4.098     0.002   0.0% |
  Calculate projections:             0.005     0.005   0.0% |
  DenseAtomicCorrection:             0.012     0.012   0.0% |
  Distribute overlap matrix:         0.001     0.001   0.0% |
  Orbital Layouts:                   2.222     2.222   0.7% |
  Potential matrix:                  0.234     0.234   0.1% |
  Sum over cells:                    1.623     1.623   0.5% |
 LCAO to grid:                       7.410     7.410   2.3% ||
 Set positions (LCAO WFS):           0.295     0.040   0.0% |
  Basic WFS set positions:           0.000     0.000   0.0% |
  Basis functions set positions:     0.000     0.000   0.0% |
  P tci:                             0.158     0.158   0.0% |
  ST tci:                            0.092     0.092   0.0% |
  mktci:                             0.004     0.004   0.0% |
PWDescriptor:                        0.056     0.056   0.0% |
SCF-cycle:                         315.763     0.330   0.1% |
 Davidson:                         287.032    31.625   9.6% |---|
  Apply H:                          62.627    61.996  18.9% |-------|
   HMM T:                            0.631     0.631   0.2% |
  Subspace diag:                    69.628     0.076   0.0% |
   calc_h_matrix:                   65.130     2.447   0.7% |
    Apply H:                        62.683    62.013  18.9% |-------|
     HMM T:                          0.670     0.670   0.2% |
   diagonalize:                      0.445     0.445   0.1% |
   rotate_psi:                       3.978     3.978   1.2% |
  calc. matrices:                  110.462    12.963   3.9% |-|
   Apply H:                         97.499    96.287  29.3% |-----------|
    HMM T:                           1.212     1.212   0.4% |
  diagonalize:                       5.567     5.567   1.7% ||
  rotate_psi:                        7.124     7.124   2.2% ||
 Density:                           23.982     0.000   0.0% |
  Atomic density matrices:           0.090     0.090   0.0% |
  Mix:                               2.017     2.017   0.6% |
  Multipole moments:                 0.002     0.002   0.0% |
  Pseudo density:                   21.873    21.813   6.6% |--|
   Symmetrize density:               0.060     0.060   0.0% |
 Hamiltonian:                        3.966     0.024   0.0% |
  Atomic:                            2.260     0.011   0.0% |
   XC Correction:                    2.249     2.249   0.7% |
  Calculate atomic Hamiltonians:     0.242     0.242   0.1% |
  Communicate:                       0.000     0.000   0.0% |
  Poisson:                           0.015     0.015   0.0% |
  XC 3D grid:                        1.424     1.424   0.4% |
 Orthonormalize:                     0.452     0.003   0.0% |
  calc_s_matrix:                     0.062     0.062   0.0% |
  inverse-cholesky:                  0.006     0.006   0.0% |
  projections:                       0.278     0.278   0.1% |
  rotate_psi_s:                      0.103     0.103   0.0% |
Set symmetry:                        0.004     0.004   0.0% |
Other:                               0.354     0.354   0.1% |
-----------------------------------------------------------
Total:                                       328.227 100.0%

Memory usage: 556.00 MiB
Date: Mon Apr  7 16:29:25 2025
