
  ___ ___ ___ _ _ _  
 |   |   |_  | | | | 
 | | | | | . | | | | 
 |__ |  _|___|_____|  25.1.0
 |___|_|             

User:   georgios-vourvachakis@georgios-vourvachakis-82K2
Date:   Mon Apr  7 16:00:25 2025
Arch:   x86_64
Pid:    9554
CWD:    /home/georgios-vourvachakis/Desktop/DFT_codes
Python: 3.12.3
gpaw:   /home/georgios-vourvachakis/Desktop/DFT_codes/.venv/lib/python3.12/site-packages/gpaw
_gpaw:  /home/georgios-vourvachakis/Desktop/DFT_codes/.venv/lib/python3.12/site-packages/
        _gpaw.cpython-312-x86_64-linux-gnu.so
ase:    /home/georgios-vourvachakis/Desktop/DFT_codes/.venv/lib/python3.12/site-packages/ase (version 3.24.0)
numpy:  /home/georgios-vourvachakis/Desktop/DFT_codes/.venv/lib/python3.12/site-packages/numpy (version 2.2.3)
scipy:  /home/georgios-vourvachakis/Desktop/DFT_codes/.venv/lib/python3.12/site-packages/scipy (version 1.15.1)
libxc:  5.2.3
units:  Angstrom and eV
cores: 1
OpenMP: False
OMP_NUM_THREADS: 1

Input parameters:
  kpts: [10 10  2]
  mode: {ecut: 600.0,
         name: pw}
  xc: PBE

System changes: positions, numbers, cell, pbc, initial_charges, initial_magmoms 

Initialize ...

species:
  W:
    name: Tungsten
    id: 3ed563b7d19992259c4d7db283f2ff78
    Z: 74.0
    valence: 14
    core: 60
    charge: 0.0
    file: /home/georgios-vourvachakis/Desktop/DFT_codes/gpaw_datasets/gpaw-setups-0.9.20000/W.PBE.gz
    compensation charges: {type: gauss,
                           rc: 0.40,
                           lmax: 2}
    cutoffs: {filter: 2.36,
              core: 3.02}
    projectors:
      #              energy  rcut
      - 5s(2.00)   -78.830   1.344
      - 6s(2.00)    -5.697   1.344
      - 5p(6.00)   -43.233   1.355
      - 6p(0.00)    -1.367   1.355
      - 5d(4.00)    -4.494   1.228
      -  d          22.717   1.228
  
    # Using partial waves for W as LCAO basis

  Te:
    name: Tellurium
    id: e44b9ef4772d7e5a1c6a47e6d6496588
    Z: 52.0
    valence: 6
    core: 46
    charge: 0.0
    file: /home/georgios-vourvachakis/Desktop/DFT_codes/gpaw_datasets/gpaw-setups-0.9.20000/Te.PBE.gz
    compensation charges: {type: gauss,
                           rc: 0.36,
                           lmax: 2}
    cutoffs: {filter: 2.09,
              core: 3.17}
    projectors:
      #              energy  rcut
      - 5s(2.00)   -15.089   1.180
      - 5p(4.00)    -5.955   1.196
      -  s          12.123   1.180
      -  p          21.256   1.196
      -  d           0.000   1.238
  
    # Using partial waves for Te as LCAO basis

Reference energy: -1616706.077045  # eV

Spin-paired calculation

Convergence criteria:
 Maximum [total energy] change in last 3 cyles: 0.0005 eV / valence electron
 Maximum integral of absolute [dens]ity change: 0.0001 electrons / valence electron
 Maximum integral of absolute [eigenst]ate change: 4e-08 eV^2 / valence electron
 Maximum number of scf [iter]ations: 333
 (Square brackets indicate name in SCF output, whereas a 'c' in
 the SCF output indicates the quantity has converged.)

Symmetries present (total): 6

  ( 1  1  0)  ( 1  0  0)  ( 0  1  0)  ( 0 -1  0)  (-1  0  0)  (-1 -1  0)
  ( 0 -1  0)  ( 0  1  0)  (-1 -1  0)  (-1  0  0)  ( 1  1  0)  ( 1  0  0)
  ( 0  0  1)  ( 0  0  1)  ( 0  0  1)  ( 0  0  1)  ( 0  0  1)  ( 0  0  1)
Note: your k-points are not as symmetric as your crystal!

200 k-points: 10 x 10 x 2 Monkhorst-Pack grid
55 k-points in the irreducible part of the Brillouin zone
       k-points in crystal coordinates                weights
   0:     0.05000000   -0.05000000   -0.25000000          2/200
   1:     0.05000000   -0.05000000    0.25000000          2/200
   2:     0.05000000    0.05000000    0.25000000          4/200
   3:     0.15000000   -0.15000000   -0.25000000          2/200
   4:     0.15000000   -0.15000000    0.25000000          2/200
   5:     0.15000000   -0.05000000   -0.25000000          4/200
   6:     0.15000000   -0.05000000    0.25000000          4/200
   7:     0.15000000    0.05000000   -0.25000000          4/200
   8:     0.15000000    0.05000000    0.25000000          4/200
   9:     0.15000000    0.15000000    0.25000000          4/200
          ...
  54:     0.45000000    0.45000000    0.25000000          4/200

Wave functions: Plane wave expansion
  Cutoff energy: 600.000 eV
  Number of coefficients (min, max): 4647, 4714
  Pulay-stress correction: 0.000000 eV/Ang^3 (de/decut=0.000000)
  Using Numpy's FFT
  ScaLapack parameters: grid=1x1, blocksize=None
  Wavefunction extrapolation:
    Improved wavefunction reuse through dual PAW basis 

Occupation numbers: Fermi-Dirac:
  width: 0.1000  # eV
 

Eigensolver
   Davidson(niter=2) 

Densities:
  Coarse grid: 20*20*80 grid
  Fine grid: 40*40*160 grid
  Total Charge: 0.000000 

Density mixing:
  Method: separate
  Backend: pulay
  Linear mixing parameter: 0.05
  old densities: 5
  Damping of long wavelength oscillations: 50 

Hamiltonian:
  XC and Coulomb potentials evaluated on a 40*40*160 grid
  Using the PBE Exchange-Correlation functional
  External potential:
    NoExternalPotential
 

XC parameters: PBE with 2 nearest neighbor stencil

Memory estimate:
  Process memory now: 460.29 MiB
  Calculator: 212.14 MiB
    Density: 15.03 MiB
      Arrays: 6.35 MiB
      Localized functions: 6.24 MiB
      Mixer: 2.44 MiB
    Hamiltonian: 4.30 MiB
      Arrays: 4.15 MiB
      XC: 0.00 MiB
      Poisson: 0.00 MiB
      vbar: 0.15 MiB
    Wavefunctions: 192.81 MiB
      Arrays psit_nG: 142.42 MiB
      Eigensolver: 3.15 MiB
      Projections: 2.66 MiB
      Projectors: 39.41 MiB
      PW-descriptor: 5.18 MiB

Total number of cores used: 1

Number of atoms: 6
Number of atomic orbitals: 42
Number of bands in calculation: 36
Number of valence electrons: 52
Bands to converge: occupied

... initialized

Initializing position-dependent things.

Density initialized from atomic densities
Creating initial wave functions:
  36 bands from LCAO basis set

                  
                  
                  
                  
                  
       Te         
                  
                  
                  
                  
                  
                  
         Te       
                  
                  
       W          
                  
                  
                  
                  
                  
                  
                  
         W        
                  
         Te       
                  
                  
                  
                  
                  
                  
                  
                  
       Te         
                  
                  
                  
                  

Positions:
   0 W      1.721508    0.993913    3.427480    ( 0.0000,  0.0000,  0.0000)
   1 W      1.721508   -0.993913   10.282439    ( 0.0000,  0.0000,  0.0000)
   2 Te     1.721508    0.993913   11.927630    ( 0.0000,  0.0000,  0.0000)
   3 Te     1.721508   -0.993913   -5.072670    ( 0.0000,  0.0000,  0.0000)
   4 Te     1.721508    0.993913    1.782289    ( 0.0000,  0.0000,  0.0000)
   5 Te     1.721508   -0.993913   18.782589    ( 0.0000,  0.0000,  0.0000)

Unit cell:
           periodic     x           y           z      points  spacing
  1. axis:    yes    1.721508   -2.981739    0.000000    20     0.1491
  2. axis:    yes    1.721508    2.981739    0.000000    20     0.1491
  3. axis:    yes    0.000000    0.000000   13.709919    80     0.1714

  Lengths:   3.443015   3.443015  13.709919
  Angles:   90.000000  90.000000 120.000000

Effective grid spacing dv^(1/3) = 0.1638

     iter     time        total  log10-change:
                         energy   eigst   dens
iter:   1 16:00:47     9.640252
iter:   2 16:00:58    12.201890   -0.64  -0.92
iter:   3 16:01:09    13.850458   -1.13  -1.09
iter:   4 16:01:20    14.422661   -1.42  -1.25
iter:   5 16:01:32    14.748281   -1.61  -1.41
iter:   6 16:01:47    14.751578   -2.49  -1.87
iter:   7 16:01:59    14.754009c  -3.48  -1.91
iter:   8 16:02:12    14.744866c  -2.80  -1.94
iter:   9 16:02:23    14.746316c  -2.93  -2.17
iter:  10 16:02:35    14.747388c  -4.27  -2.61
iter:  11 16:02:47    14.748219c  -4.46  -2.66
iter:  12 16:02:59    14.748619c  -4.69  -2.79
iter:  13 16:03:11    14.748724c  -4.67  -2.99
iter:  14 16:03:23    14.748642c  -5.15  -3.24
iter:  15 16:03:35    14.748623c  -5.97  -3.35
iter:  16 16:03:46    14.748655c  -6.19  -3.41
iter:  17 16:03:58    14.748672c  -6.82  -3.60
iter:  18 16:04:10    14.748682c  -6.60  -3.75
iter:  19 16:04:21    14.748683c  -7.18  -4.01c
iter:  20 16:04:33    14.748698c  -7.30  -4.06c
iter:  21 16:04:45    14.748699c  -8.02c -4.19c

Converged after 21 iterations.

Dipole moment: (0.000000, -0.000000, -0.199449) |e|*Ang

Energy contributions relative to reference atoms: (reference = -1616706.077045)

Kinetic:       +610.072423
Potential:     -510.267074
External:        +0.000000
XC:             -83.395316
Entropy (-ST):   -0.090177
Local:           -1.616245
SIC:             +0.000000
--------------------------
Free energy:    +14.703611
Extrapolated:   +14.748699

Showing only first 2 kpts
 Kpt  Band  Eigenvalues  Occupancy
  0    24      8.57546    2.00000
  0    25      9.72340    1.68671
  0    26     11.60591    0.00000
  0    27     11.74017    0.00000

  1    24      8.57546    2.00000
  1    25      9.72340    1.68671
  1    26     11.60591    0.00000
  1    27     11.74017    0.00000


Fermi level: 9.89174

No gap
No difference between direct/indirect transitions
Timing:                              incl.     excl.
-----------------------------------------------------------
Hamiltonian:                         0.187     0.001   0.0% |
 Atomic:                             0.113     0.001   0.0% |
  XC Correction:                     0.112     0.112   0.0% |
 Calculate atomic Hamiltonians:      0.010     0.010   0.0% |
 Communicate:                        0.000     0.000   0.0% |
 Initialize Hamiltonian:             0.000     0.000   0.0% |
 Poisson:                            0.000     0.000   0.0% |
 XC 3D grid:                         0.063     0.063   0.0% |
LCAO initialization:                10.956     0.052   0.0% |
 LCAO eigensolver:                   4.867     0.001   0.0% |
  Calculate projections:             0.004     0.004   0.0% |
  DenseAtomicCorrection:             0.010     0.010   0.0% |
  Distribute overlap matrix:         0.001     0.001   0.0% |
  Orbital Layouts:                   2.585     2.585   1.0% |
  Potential matrix:                  0.238     0.238   0.1% |
  Sum over cells:                    2.027     2.027   0.8% |
 LCAO to grid:                       5.701     5.701   2.2% ||
 Set positions (LCAO WFS):           0.337     0.057   0.0% |
  Basic WFS set positions:           0.000     0.000   0.0% |
  Basis functions set positions:     0.000     0.000   0.0% |
  P tci:                             0.170     0.170   0.1% |
  ST tci:                            0.106     0.106   0.0% |
  mktci:                             0.004     0.004   0.0% |
PWDescriptor:                        0.037     0.037   0.0% |
SCF-cycle:                         248.163     0.349   0.1% |
 Davidson:                         227.412    24.678   9.5% |---|
  Apply H:                          43.197    42.687  16.4% |------|
   HMM T:                            0.510     0.510   0.2% |
  Subspace diag:                    48.617     0.068   0.0% |
   calc_h_matrix:                   45.173     1.929   0.7% |
    Apply H:                        43.243    42.693  16.4% |------|
     HMM T:                          0.551     0.551   0.2% |
   diagonalize:                      0.410     0.410   0.2% |
   rotate_psi:                       2.965     2.965   1.1% |
  calc. matrices:                   93.275    10.422   4.0% |-|
   Apply H:                         82.854    81.844  31.5% |------------|
    HMM T:                           1.010     1.010   0.4% |
  diagonalize:                      12.014    12.014   4.6% |-|
  rotate_psi:                        5.630     5.630   2.2% ||
 Density:                           16.618     0.000   0.0% |
  Atomic density matrices:           0.082     0.082   0.0% |
  Mix:                               1.919     1.919   0.7% |
  Multipole moments:                 0.002     0.002   0.0% |
  Pseudo density:                   14.615    14.577   5.6% |-|
   Symmetrize density:               0.038     0.038   0.0% |
 Hamiltonian:                        3.433     0.016   0.0% |
  Atomic:                            2.306     0.010   0.0% |
   XC Correction:                    2.295     2.295   0.9% |
  Calculate atomic Hamiltonians:     0.187     0.187   0.1% |
  Communicate:                       0.000     0.000   0.0% |
  Poisson:                           0.012     0.012   0.0% |
  XC 3D grid:                        0.912     0.912   0.4% |
 Orthonormalize:                     0.351     0.003   0.0% |
  calc_s_matrix:                     0.049     0.049   0.0% |
  inverse-cholesky:                  0.006     0.006   0.0% |
  projections:                       0.221     0.221   0.1% |
  rotate_psi_s:                      0.073     0.073   0.0% |
Set symmetry:                        0.004     0.004   0.0% |
Other:                               0.317     0.317   0.1% |
-----------------------------------------------------------
Total:                                       259.663 100.0%

Memory usage: 473.98 MiB
Date: Mon Apr  7 16:04:45 2025
