
  ___ ___ ___ _ _ _  
 |   |   |_  | | | | 
 | | | | | . | | | | 
 |__ |  _|___|_____|  25.1.0
 |___|_|             

User:   georgios-vourvachakis@georgios-vourvachakis-82K2
Date:   Mon Apr  7 16:13:49 2025
Arch:   x86_64
Pid:    9554
CWD:    /home/georgios-vourvachakis/Desktop/DFT_codes
Python: 3.12.3
gpaw:   /home/georgios-vourvachakis/Desktop/DFT_codes/.venv/lib/python3.12/site-packages/gpaw
_gpaw:  /home/georgios-vourvachakis/Desktop/DFT_codes/.venv/lib/python3.12/site-packages/
        _gpaw.cpython-312-x86_64-linux-gnu.so
ase:    /home/georgios-vourvachakis/Desktop/DFT_codes/.venv/lib/python3.12/site-packages/ase (version 3.24.0)
numpy:  /home/georgios-vourvachakis/Desktop/DFT_codes/.venv/lib/python3.12/site-packages/numpy (version 2.2.3)
scipy:  /home/georgios-vourvachakis/Desktop/DFT_codes/.venv/lib/python3.12/site-packages/scipy (version 1.15.1)
libxc:  5.2.3
units:  Angstrom and eV
cores: 1
OpenMP: False
OMP_NUM_THREADS: 1

Input parameters:
  kpts: [10 10  2]
  mode: {ecut: 600.0,
         name: pw}
  xc: PBE

System changes: positions, numbers, cell, pbc, initial_charges, initial_magmoms 

Initialize ...

species:
  W:
    name: Tungsten
    id: 3ed563b7d19992259c4d7db283f2ff78
    Z: 74.0
    valence: 14
    core: 60
    charge: 0.0
    file: /home/georgios-vourvachakis/Desktop/DFT_codes/gpaw_datasets/gpaw-setups-0.9.20000/W.PBE.gz
    compensation charges: {type: gauss,
                           rc: 0.40,
                           lmax: 2}
    cutoffs: {filter: 2.36,
              core: 3.02}
    projectors:
      #              energy  rcut
      - 5s(2.00)   -78.830   1.344
      - 6s(2.00)    -5.697   1.344
      - 5p(6.00)   -43.233   1.355
      - 6p(0.00)    -1.367   1.355
      - 5d(4.00)    -4.494   1.228
      -  d          22.717   1.228
  
    # Using partial waves for W as LCAO basis

  Te:
    name: Tellurium
    id: e44b9ef4772d7e5a1c6a47e6d6496588
    Z: 52.0
    valence: 6
    core: 46
    charge: 0.0
    file: /home/georgios-vourvachakis/Desktop/DFT_codes/gpaw_datasets/gpaw-setups-0.9.20000/Te.PBE.gz
    compensation charges: {type: gauss,
                           rc: 0.36,
                           lmax: 2}
    cutoffs: {filter: 2.09,
              core: 3.17}
    projectors:
      #              energy  rcut
      - 5s(2.00)   -15.089   1.180
      - 5p(4.00)    -5.955   1.196
      -  s          12.123   1.180
      -  p          21.256   1.196
      -  d           0.000   1.238
  
    # Using partial waves for Te as LCAO basis

Reference energy: -1616706.077045  # eV

Spin-paired calculation

Convergence criteria:
 Maximum [total energy] change in last 3 cyles: 0.0005 eV / valence electron
 Maximum integral of absolute [dens]ity change: 0.0001 electrons / valence electron
 Maximum integral of absolute [eigenst]ate change: 4e-08 eV^2 / valence electron
 Maximum number of scf [iter]ations: 333
 (Square brackets indicate name in SCF output, whereas a 'c' in
 the SCF output indicates the quantity has converged.)

Symmetries present (total): 6

  ( 1  1  0)  ( 1  0  0)  ( 0  1  0)  ( 0 -1  0)  (-1  0  0)  (-1 -1  0)
  ( 0 -1  0)  ( 0  1  0)  (-1 -1  0)  (-1  0  0)  ( 1  1  0)  ( 1  0  0)
  ( 0  0  1)  ( 0  0  1)  ( 0  0  1)  ( 0  0  1)  ( 0  0  1)  ( 0  0  1)
Note: your k-points are not as symmetric as your crystal!

200 k-points: 10 x 10 x 2 Monkhorst-Pack grid
55 k-points in the irreducible part of the Brillouin zone
       k-points in crystal coordinates                weights
   0:     0.05000000   -0.05000000   -0.25000000          2/200
   1:     0.05000000   -0.05000000    0.25000000          2/200
   2:     0.05000000    0.05000000    0.25000000          4/200
   3:     0.15000000   -0.15000000   -0.25000000          2/200
   4:     0.15000000   -0.15000000    0.25000000          2/200
   5:     0.15000000   -0.05000000   -0.25000000          4/200
   6:     0.15000000   -0.05000000    0.25000000          4/200
   7:     0.15000000    0.05000000   -0.25000000          4/200
   8:     0.15000000    0.05000000    0.25000000          4/200
   9:     0.15000000    0.15000000    0.25000000          4/200
          ...
  54:     0.45000000    0.45000000    0.25000000          4/200

Wave functions: Plane wave expansion
  Cutoff energy: 600.000 eV
  Number of coefficients (min, max): 5381, 5426
  Pulay-stress correction: 0.000000 eV/Ang^3 (de/decut=0.000000)
  Using Numpy's FFT
  ScaLapack parameters: grid=1x1, blocksize=None
  Wavefunction extrapolation:
    Improved wavefunction reuse through dual PAW basis 

Occupation numbers: Fermi-Dirac:
  width: 0.1000  # eV
 

Eigensolver
   Davidson(niter=2) 

Densities:
  Coarse grid: 21*21*84 grid
  Fine grid: 42*42*168 grid
  Total Charge: 0.000000 

Density mixing:
  Method: separate
  Backend: pulay
  Linear mixing parameter: 0.05
  old densities: 5
  Damping of long wavelength oscillations: 50 

Hamiltonian:
  XC and Coulomb potentials evaluated on a 42*42*168 grid
  Using the PBE Exchange-Correlation functional
  External potential:
    NoExternalPotential
 

XC parameters: PBE with 2 nearest neighbor stencil

Memory estimate:
  Process memory now: 511.30 MiB
  Calculator: 243.83 MiB
    Density: 17.35 MiB
      Arrays: 7.35 MiB
      Localized functions: 7.18 MiB
      Mixer: 2.83 MiB
    Hamiltonian: 4.98 MiB
      Arrays: 4.80 MiB
      XC: 0.00 MiB
      Poisson: 0.00 MiB
      vbar: 0.18 MiB
    Wavefunctions: 221.50 MiB
      Arrays psit_nG: 163.93 MiB
      Eigensolver: 3.59 MiB
      Projections: 2.66 MiB
      Projectors: 45.35 MiB
      PW-descriptor: 5.97 MiB

Total number of cores used: 1

Number of atoms: 6
Number of atomic orbitals: 42
Number of bands in calculation: 36
Number of valence electrons: 52
Bands to converge: occupied

... initialized

Initializing position-dependent things.

Density initialized from atomic densities
Creating initial wave functions:
  36 bands from LCAO basis set

                  
                  
                  
                  
                  
       Te         
                  
                  
                  
                  
                  
                  
                  
         Te       
                  
                  
       W          
                  
                  
                  
                  
                  
                  
                  
         W        
                  
         Te       
                  
                  
                  
                  
                  
                  
                  
                  
                  
       Te         
                  
                  
                  
                  

Positions:
   0 W      1.803839    1.041447    3.591399    ( 0.0000,  0.0000,  0.0000)
   1 W      1.803839   -1.041447   10.774198    ( 0.0000,  0.0000,  0.0000)
   2 Te     1.803839    1.041447   12.498070    ( 0.0000,  0.0000,  0.0000)
   3 Te     1.803839   -1.041447   -5.315271    ( 0.0000,  0.0000,  0.0000)
   4 Te     1.803839    1.041447    1.867528    ( 0.0000,  0.0000,  0.0000)
   5 Te     1.803839   -1.041447   19.680869    ( 0.0000,  0.0000,  0.0000)

Unit cell:
           periodic     x           y           z      points  spacing
  1. axis:    yes    1.803839   -3.124341    0.000000    21     0.1488
  2. axis:    yes    1.803839    3.124341    0.000000    21     0.1488
  3. axis:    yes    0.000000    0.000000   14.365598    84     0.1710

  Lengths:   3.607678   3.607678  14.365598
  Angles:   90.000000  90.000000 120.000000

Effective grid spacing dv^(1/3) = 0.1635

     iter     time        total  log10-change:
                         energy   eigst   dens
iter:   1 16:14:12    -2.508468
iter:   2 16:14:24    -0.857389   -0.71  -0.98
iter:   3 16:14:37     0.192479   -1.30  -1.12
iter:   4 16:14:50     0.819453   -1.53  -1.22
iter:   5 16:15:03     1.088270   -1.65  -1.41
iter:   6 16:15:15     1.088117   -2.33  -1.82
iter:   7 16:15:28     1.100310c  -3.16  -1.90
iter:   8 16:15:41     1.089206c  -2.81  -2.02
iter:   9 16:15:54     1.094117c  -3.26  -2.26
iter:  10 16:16:07     1.093862c  -4.26  -2.60
iter:  11 16:16:19     1.093583c  -3.91  -2.45
iter:  12 16:16:32     1.094442c  -4.51  -2.65
iter:  13 16:16:45     1.094580c  -4.63  -2.79
iter:  14 16:16:58     1.094676c  -5.62  -2.87
iter:  15 16:17:11     1.095035c  -5.37  -2.90
iter:  16 16:17:23     1.095125c  -4.49  -3.00
iter:  17 16:17:36     1.095148c  -6.11  -3.28
iter:  18 16:17:49     1.095171c  -6.99  -3.27
iter:  19 16:18:02     1.095311c  -5.33  -3.29
iter:  20 16:18:15     1.095259c  -6.34  -3.64
iter:  21 16:18:28     1.095223c  -6.49  -3.76
iter:  22 16:18:43     1.095240c  -6.43  -3.89
iter:  23 16:18:57     1.095236c  -8.00c -4.01c

Converged after 23 iterations.

Dipole moment: (-0.000000, 0.000000, -0.184010) |e|*Ang

Energy contributions relative to reference atoms: (reference = -1616706.077045)

Kinetic:       +471.511902
Potential:     -400.107785
External:        +0.000000
XC:             -68.842372
Entropy (-ST):   -0.064946
Local:           -1.434035
SIC:             +0.000000
--------------------------
Free energy:     +1.062763
Extrapolated:    +1.095236

Showing only first 2 kpts
 Kpt  Band  Eigenvalues  Occupancy
  0    24      6.74849    1.99999
  0    25      7.79176    1.79660
  0    26      9.35045    0.00000
  0    27      9.45780    0.00000

  1    24      6.74849    1.99999
  1    25      7.79176    1.79660
  1    26      9.35045    0.00000
  1    27      9.45780    0.00000


Fermi level: 8.00961

Gap: 0.233 eV
Transition (v -> c):
  (s=0, k=5, n=25, [0.15, -0.05, -0.25]) -> (s=0, k=11, n=26, [0.25, -0.25, 0.25])
Direct/indirect transitions are different
Direct gap: 0.524 eV
Transition at: (s=0, k=8, n=25, [0.15, 0.05, 0.25])
Timing:                              incl.     excl.
-----------------------------------------------------------
Hamiltonian:                         0.191     0.001   0.0% |
 Atomic:                             0.114     0.001   0.0% |
  XC Correction:                     0.113     0.113   0.0% |
 Calculate atomic Hamiltonians:      0.011     0.011   0.0% |
 Communicate:                        0.000     0.000   0.0% |
 Initialize Hamiltonian:             0.000     0.000   0.0% |
 Poisson:                            0.000     0.000   0.0% |
 XC 3D grid:                         0.066     0.066   0.0% |
LCAO initialization:                10.412     0.052   0.0% |
 LCAO eigensolver:                   4.430     0.001   0.0% |
  Calculate projections:             0.004     0.004   0.0% |
  DenseAtomicCorrection:             0.009     0.009   0.0% |
  Distribute overlap matrix:         0.001     0.001   0.0% |
  Orbital Layouts:                   2.331     2.331   0.8% |
  Potential matrix:                  0.209     0.209   0.1% |
  Sum over cells:                    1.875     1.875   0.6% |
 LCAO to grid:                       5.599     5.599   1.8% ||
 Set positions (LCAO WFS):           0.332     0.048   0.0% |
  Basic WFS set positions:           0.000     0.000   0.0% |
  Basis functions set positions:     0.000     0.000   0.0% |
  P tci:                             0.172     0.172   0.1% |
  ST tci:                            0.107     0.107   0.0% |
  mktci:                             0.004     0.004   0.0% |
PWDescriptor:                        0.043     0.043   0.0% |
SCF-cycle:                         296.587     0.333   0.1% |
 Davidson:                         270.809    30.106   9.8% |---|
  Apply H:                          55.385    54.809  17.8% |------|
   HMM T:                            0.575     0.575   0.2% |
  Subspace diag:                    62.254     0.070   0.0% |
   calc_h_matrix:                   58.063     2.341   0.8% |
    Apply H:                        55.721    55.089  17.9% |------|
     HMM T:                          0.632     0.632   0.2% |
   diagonalize:                      0.457     0.457   0.1% |
   rotate_psi:                       3.664     3.664   1.2% |
  calc. matrices:                  109.539    12.204   4.0% |-|
   Apply H:                         97.335    96.211  31.3% |------------|
    HMM T:                           1.125     1.125   0.4% |
  diagonalize:                       6.922     6.922   2.3% ||
  rotate_psi:                        6.603     6.603   2.1% ||
 Density:                           21.017     0.000   0.0% |
  Atomic density matrices:           0.090     0.090   0.0% |
  Mix:                               1.894     1.894   0.6% |
  Multipole moments:                 0.002     0.002   0.0% |
  Pseudo density:                   19.030    18.982   6.2% |-|
   Symmetrize density:               0.048     0.048   0.0% |
 Hamiltonian:                        4.029     0.021   0.0% |
  Atomic:                            2.433     0.011   0.0% |
   XC Correction:                    2.422     2.422   0.8% |
  Calculate atomic Hamiltonians:     0.260     0.260   0.1% |
  Communicate:                       0.000     0.000   0.0% |
  Poisson:                           0.014     0.014   0.0% |
  XC 3D grid:                        1.300     1.300   0.4% |
 Orthonormalize:                     0.399     0.003   0.0% |
  calc_s_matrix:                     0.054     0.054   0.0% |
  inverse-cholesky:                  0.006     0.006   0.0% |
  projections:                       0.250     0.250   0.1% |
  rotate_psi_s:                      0.085     0.085   0.0% |
Set symmetry:                        0.004     0.004   0.0% |
Other:                               0.318     0.318   0.1% |
-----------------------------------------------------------
Total:                                       307.555 100.0%

Memory usage: 518.98 MiB
Date: Mon Apr  7 16:18:57 2025
