
  ___ ___ ___ _ _ _  
 |   |   |_  | | | | 
 | | | | | . | | | | 
 |__ |  _|___|_____|  25.1.0
 |___|_|             

User:   georgios-vourvachakis@georgios-vourvachakis-82K2
Date:   Thu Apr 10 20:02:48 2025
Arch:   x86_64
Pid:    376007
CWD:    /home/georgios-vourvachakis/Desktop/DFT_codes
Python: 3.12.3
gpaw:   /home/georgios-vourvachakis/Desktop/DFT_codes/.venv/lib/python3.12/site-packages/gpaw
_gpaw:  /home/georgios-vourvachakis/Desktop/DFT_codes/.venv/lib/python3.12/site-packages/
        _gpaw.cpython-312-x86_64-linux-gnu.so
ase:    /home/georgios-vourvachakis/Desktop/DFT_codes/.venv/lib/python3.12/site-packages/ase (version 3.24.0)
numpy:  /home/georgios-vourvachakis/Desktop/DFT_codes/.venv/lib/python3.12/site-packages/numpy (version 2.2.3)
scipy:  /home/georgios-vourvachakis/Desktop/DFT_codes/.venv/lib/python3.12/site-packages/scipy (version 1.15.1)
libxc:  5.2.3
units:  Angstrom and eV
cores: 1
OpenMP: False
OMP_NUM_THREADS: 1

Input parameters:
  experimental: {magmoms: [[0. 0. 0.]
 [0. 0. 0.]],
                 soc: True}
  kpts: {gamma: True,
         size: (8, 8, 8)}
  mode: {ecut: 400.0,
         name: pw}
  occupations: {fixmagmom: False,
                name: fermi-dirac,
                width: 0.01}
  symmetry: off

System changes: positions, numbers, cell, pbc, initial_charges, initial_magmoms 

Initialize ...

species:
  Si:
    name: Silicon
    id: b152d83ba7c91a8f3191da15c74e1ae7
    Z: 14.0
    valence: 4
    core: 10
    charge: 0.0
    file: /home/georgios-vourvachakis/Desktop/DFT_codes/gpaw_datasets/gpaw-setups-0.9.20000/Si.LDA.gz
    compensation charges: {type: gauss,
                           rc: 0.33,
                           lmax: 2}
    cutoffs: {filter: 1.86,
              core: 2.06}
    projectors:
      #              energy  rcut
      - 3s(2.00)   -10.878   1.058
      - 3p(2.00)    -4.162   1.058
      -  s          16.334   1.058
      -  p          23.049   1.058
      -  d           0.000   1.058
  
    # Using partial waves for Si as LCAO basis

Reference energy: -15717.426366  # eV

Non-collinear calculation.
Magnetic moment: (0.000000, 0.000000, 0.000000)

Convergence criteria:
 Maximum [total energy] change in last 3 cyles: 0.0005 eV / valence electron
 Maximum integral of absolute [dens]ity change: 0.0001 electrons / valence electron
 Maximum integral of absolute [eigenst]ate change: 4e-08 eV^2 / valence electron
 Maximum number of scf [iter]ations: 333
 (Square brackets indicate name in SCF output, whereas a 'c' in
 the SCF output indicates the quantity has converged.)

Symmetries present (total): 1

  ( 1  0  0)
  ( 0  1  0)
  ( 0  0  1)

512 k-points: 8 x 8 x 8 Monkhorst-Pack grid + [1/16,1/16,1/16]
512 k-points in the irreducible part of the Brillouin zone
       k-points in crystal coordinates                weights
   0:    -0.37500000   -0.37500000   -0.37500000          1/512
   1:    -0.37500000   -0.37500000   -0.25000000          1/512
   2:    -0.37500000   -0.37500000   -0.12500000          1/512
   3:    -0.37500000   -0.37500000    0.00000000          1/512
   4:    -0.37500000   -0.37500000    0.12500000          1/512
   5:    -0.37500000   -0.37500000    0.25000000          1/512
   6:    -0.37500000   -0.37500000    0.37500000          1/512
   7:    -0.37500000   -0.37500000    0.50000000          1/512
   8:    -0.37500000   -0.25000000   -0.37500000          1/512
   9:    -0.37500000   -0.25000000   -0.25000000          1/512
          ...
 511:     0.50000000    0.50000000    0.50000000          1/512

Wave functions: Plane wave expansion
  Cutoff energy: 400.000 eV
  Number of coefficients (min, max): 716, 740
  Pulay-stress correction: 0.000000 eV/Ang^3 (de/decut=0.000000)
  Using Numpy's FFT
  ScaLapack parameters: grid=1x1, blocksize=None
  Wavefunction extrapolation:
    Improved wavefunction reuse through dual PAW basis 

Occupation numbers: Fermi-Dirac:
  width: 0.0100  # eV
 

Eigensolver
   Davidson(niter=2) 

Densities:
  Coarse grid: 18*18*18 grid
  Fine grid: 36*36*36 grid
  Total Charge: 0.000000 

Density mixing:
  Method: difference
  Backend: pulay
  Linear mixing parameter: 0.05
  old densities: 5
  Damping of long wavelength oscillations: 50 

Hamiltonian:
  XC and Coulomb potentials evaluated on a 36*36*36 grid
  Using the LDA Exchange-Correlation functional
  External potential:
    NoExternalPotential
 

Memory estimate:
  Process memory now: 146.75 MiB
  Calculator: 145.46 MiB
    Density: 2.91 MiB
      Arrays: 1.16 MiB
      Localized functions: 0.77 MiB
      Mixer: 0.98 MiB
    Hamiltonian: 0.77 MiB
      Arrays: 0.76 MiB
      XC: 0.00 MiB
      Poisson: 0.00 MiB
      vbar: 0.02 MiB
    Wavefunctions: 141.78 MiB
      Arrays psit_nG: 92.50 MiB
      Eigensolver: 0.28 MiB
      Projections: 3.25 MiB
      Projectors: 39.75 MiB
      PW-descriptor: 6.00 MiB

Total number of cores used: 1

Number of atoms: 2
Number of atomic orbitals: 8
Number of bands in calculation: 16
Number of valence electrons: 8
Bands to converge: occupied

... initialized

Initializing position-dependent things.

Density initialized from atomic densities
Creating initial wave functions:
  8 bands from LCAO basis set
  8 bands from random numbers

                    
                    
                    
                    
           Si       
                    
       Si           
                    
                    
                    
                    

Positions:
   0 Si     0.000000    0.000000    0.000000    ( 0.0000,  0.0000,  0.0000)
   1 Si     1.357500    1.357500    1.357500    ( 0.0000,  0.0000,  0.0000)

Unit cell:
           periodic     x           y           z      points  spacing
  1. axis:    yes    0.000000    2.715000    2.715000    18     0.1742
  2. axis:    yes    2.715000    0.000000    2.715000    18     0.1742
  3. axis:    yes    2.715000    2.715000    0.000000    18     0.1742

  Lengths:   3.839590   3.839590   3.839590
  Angles:   60.000000  60.000000  60.000000

Effective grid spacing dv^(1/3) = 0.1900

     iter     time        total  log10-change:
                         energy   eigst   dens
iter:   1 20:03:19   -12.050598                  +0.0,+0.0,+0.0
iter:   2 20:03:45   -12.042488   -1.93  -0.80   -0.0,-0.0,+0.0
iter:   3 20:04:12   -12.452401   -1.06  -0.80   +0.0,-0.0,+0.0
iter:   4 20:04:38   -11.951421   -1.99  -0.64   +0.0,-0.0,+0.0
iter:   5 20:05:04   -11.916158   -2.97  -1.17   +0.0,+0.0,+0.0
iter:   6 20:05:32   -11.881131   -2.54  -1.31   +0.0,+0.0,+0.0
iter:   7 20:05:58   -11.880899   -4.44  -2.45   +0.0,+0.0,+0.0
iter:   8 20:06:24   -11.880919c  -5.13  -2.96   +0.0,+0.0,+0.0
iter:   9 20:06:50   -11.880905c  -6.54  -2.97   +0.0,+0.0,+0.0
iter:  10 20:07:16   -11.880899c  -6.67  -3.19   +0.0,+0.0,+0.0
iter:  11 20:07:42   -11.880899c  -8.50c -3.75   +0.0,+0.0,+0.0
iter:  12 20:08:09   -11.880898c  -7.73c -3.78   +0.0,+0.0,+0.0
iter:  13 20:08:36   -11.880898c  -9.09c -4.83c  +0.0,+0.0,+0.0

Converged after 13 iterations.

Dipole moment: (-2.923279, -2.923279, -2.923279) |e|*Ang

Total magnetic moment: (0.000000, 0.000000, 0.000000)
Local magnetic moments:
   0 Si ( 0.000000,  0.000000,  0.000000)
   1 Si ( 0.000000,  0.000000,  0.000000)

Energy contributions relative to reference atoms: (reference = -15717.426366)

Kinetic:        +15.566906
Potential:      -13.715767
External:        +0.000000
XC:             -13.711753
Entropy (-ST):   -0.000000
Local:           -0.020284
SIC:             +0.000000
--------------------------
Free energy:    -11.880898
Extrapolated:   -11.880898

Showing only first 2 kpts
 Kpt  Band  Eigenvalues  Occupancy
  0     2     -0.83181    1.00000
  0     3     -0.83181    1.00000
  0     4      4.03883    1.00000
  0     5      4.03883    1.00000

  1     2     -0.16558    1.00000
  1     3     -0.16558    1.00000
  1     4      3.28938    1.00000
  1     5      3.28938    1.00000


Fermi level: 5.44934

Gap: 0.500 eV
Transition (v -> c):
  (s=0, k=219, n=7, [0.00, 0.00, 0.00]) -> (s=0, k=3, n=8, [-0.38, -0.38, 0.00])
Direct/indirect transitions are different
Direct gap: 2.488 eV
Transition at: (s=0, k=219, n=7, [0.00, 0.00, 0.00])
Writing to si_gs.gpw (mode='')

Timing:                              incl.     excl.
-----------------------------------------------------------
Hamiltonian:                         0.041     0.000   0.0% |
 Atomic:                             0.029     0.003   0.0% |
  XC Correction:                     0.026     0.026   0.0% |
 Calculate atomic Hamiltonians:      0.001     0.001   0.0% |
 Communicate:                        0.000     0.000   0.0% |
 Initialize Hamiltonian:             0.000     0.000   0.0% |
 Poisson:                            0.000     0.000   0.0% |
 XC 3D grid:                         0.010     0.010   0.0% |
LCAO initialization:                 5.718     0.009   0.0% |
 LCAO eigensolver:                   0.501     0.015   0.0% |
  DenseAtomicCorrection:             0.082     0.082   0.0% |
  Distribute overlap matrix:         0.012     0.012   0.0% |
  Orbital Layouts:                   0.039     0.039   0.0% |
  Potential matrix:                  0.099     0.099   0.0% |
  Sum over cells:                    0.253     0.253   0.1% |
 LCAO to grid:                       4.438     4.438   1.1% |
 Set positions (LCAO WFS):           0.770     0.113   0.0% |
  Basic WFS set positions:           0.000     0.000   0.0% |
  Basis functions set positions:     0.000     0.000   0.0% |
  P tci:                             0.265     0.265   0.1% |
  ST tci:                            0.388     0.388   0.1% |
  mktci:                             0.004     0.004   0.0% |
PWDescriptor:                        0.067     0.067   0.0% |
SCF-cycle:                         341.233     0.872   0.2% |
 Davidson:                         315.830    20.614   5.0% |-|
  Apply H:                          66.446    66.446  16.1% |-----|
  Subspace diag:                    70.991     0.265   0.1% |
   calc_h_matrix:                   68.177     1.945   0.5% |
    Apply H:                        66.232    66.232  16.0% |-----|
   diagonalize:                      1.019     1.019   0.2% |
   rotate_psi:                       1.530     1.530   0.4% |
  calc. matrices:                  143.327     9.816   2.4% ||
   Apply H:                        133.511   133.511  32.3% |------------|
  diagonalize:                      11.651    11.651   2.8% ||
  rotate_psi:                        2.801     2.801   0.7% |
 Density:                           23.712     0.000   0.0% |
  Atomic density matrices:           0.900     0.900   0.2% |
  Mix:                               0.051     0.051   0.0% |
  Multipole moments:                 0.001     0.001   0.0% |
  Pseudo density:                   22.761    22.761   5.5% |-|
   Symmetrize density:               0.000     0.000   0.0% |
 Hamiltonian:                        0.488     0.003   0.0% |
  Atomic:                            0.356     0.042   0.0% |
   XC Correction:                    0.314     0.314   0.1% |
  Calculate atomic Hamiltonians:     0.008     0.008   0.0% |
  Communicate:                       0.000     0.000   0.0% |
  Poisson:                           0.001     0.001   0.0% |
  XC 3D grid:                        0.118     0.118   0.0% |
 Orthonormalize:                     0.331     0.021   0.0% |
  calc_s_matrix:                     0.085     0.085   0.0% |
  inverse-cholesky:                  0.028     0.028   0.0% |
  projections:                       0.138     0.138   0.0% |
  rotate_psi_s:                      0.059     0.059   0.0% |
Set symmetry:                        0.000     0.000   0.0% |
Other:                              65.955    65.955  16.0% |-----|
-----------------------------------------------------------
Total:                                       413.014 100.0%

Memory usage: 549.84 MiB
Date: Thu Apr 10 20:09:42 2025
