
  ___ ___ ___ _ _ _  
 |   |   |_  | | | | 
 | | | | | . | | | | 
 |__ |  _|___|_____|  25.1.0
 |___|_|             

User:   georgios-vourvachakis@georgios-vourvachakis-82K2
Date:   Tue Apr  8 16:04:03 2025
Arch:   x86_64
Pid:    24499
CWD:    /home/georgios-vourvachakis/Desktop/DFT_codes
Python: 3.12.3
gpaw:   /home/georgios-vourvachakis/Desktop/DFT_codes/.venv/lib/python3.12/site-packages/gpaw
_gpaw:  /home/georgios-vourvachakis/Desktop/DFT_codes/.venv/lib/python3.12/site-packages/
        _gpaw.cpython-312-x86_64-linux-gnu.so
ase:    /home/georgios-vourvachakis/Desktop/DFT_codes/.venv/lib/python3.12/site-packages/ase (version 3.24.0)
numpy:  /home/georgios-vourvachakis/Desktop/DFT_codes/.venv/lib/python3.12/site-packages/numpy (version 2.2.3)
scipy:  /home/georgios-vourvachakis/Desktop/DFT_codes/.venv/lib/python3.12/site-packages/scipy (version 1.15.1)
libxc:  5.2.3
units:  Angstrom and eV
cores: 1
OpenMP: False
OMP_NUM_THREADS: 1

Input parameters:
  kpts: [10 10  2]
  mode: {ecut: 600.0,
         name: pw}
  xc: vdW-DF2

System changes: positions, numbers, cell, pbc, initial_charges, initial_magmoms 

Initialize ...

species:
  W:
    name: Tungsten
    id: c5cdf39eb2772a6eef4e39aea6cd5c6f
    Z: 74.0
    valence: 14
    core: 60
    charge: 0.0
    file: /home/georgios-vourvachakis/Desktop/DFT_codes/gpaw_datasets/gpaw-setups-0.9.20000/W.revPBE.gz
    compensation charges: {type: gauss,
                           rc: 0.40,
                           lmax: 2}
    cutoffs: {filter: 2.36,
              core: 3.02}
    projectors:
      #              energy  rcut
      - 5s(2.00)   -78.785   1.344
      - 6s(2.00)    -5.639   1.344
      - 5p(6.00)   -43.193   1.355
      - 6p(0.00)    -1.336   1.355
      - 5d(4.00)    -4.444   1.228
      -  d          22.768   1.228
  
    # Using partial waves for W as LCAO basis

  Te:
    name: Tellurium
    id: cecded85d882fd4df90837008c85fd5a
    Z: 52.0
    valence: 6
    core: 46
    charge: 0.0
    file: /home/georgios-vourvachakis/Desktop/DFT_codes/gpaw_datasets/gpaw-setups-0.9.20000/Te.revPBE.gz
    compensation charges: {type: gauss,
                           rc: 0.36,
                           lmax: 2}
    cutoffs: {filter: 2.09,
              core: 3.17}
    projectors:
      #              energy  rcut
      - 5s(2.00)   -15.027   1.180
      - 5p(4.00)    -5.913   1.196
      -  s          12.185   1.180
      -  p          21.299   1.196
      -  d           0.000   1.238
  
    # Using partial waves for Te as LCAO basis

Reference energy: -1616751.480151  # eV

Spin-paired calculation

Convergence criteria:
 Maximum [total energy] change in last 3 cyles: 0.0005 eV / valence electron
 Maximum integral of absolute [dens]ity change: 0.0001 electrons / valence electron
 Maximum integral of absolute [eigenst]ate change: 4e-08 eV^2 / valence electron
 Maximum number of scf [iter]ations: 333
 (Square brackets indicate name in SCF output, whereas a 'c' in
 the SCF output indicates the quantity has converged.)

Symmetries present (total): 6

  ( 1  1  0)  ( 1  0  0)  ( 0  1  0)  ( 0 -1  0)  (-1  0  0)  (-1 -1  0)
  ( 0 -1  0)  ( 0  1  0)  (-1 -1  0)  (-1  0  0)  ( 1  1  0)  ( 1  0  0)
  ( 0  0  1)  ( 0  0  1)  ( 0  0  1)  ( 0  0  1)  ( 0  0  1)  ( 0  0  1)
Note: your k-points are not as symmetric as your crystal!

200 k-points: 10 x 10 x 2 Monkhorst-Pack grid
55 k-points in the irreducible part of the Brillouin zone
       k-points in crystal coordinates                weights
   0:     0.05000000   -0.05000000   -0.25000000          2/200
   1:     0.05000000   -0.05000000    0.25000000          2/200
   2:     0.05000000    0.05000000    0.25000000          4/200
   3:     0.15000000   -0.15000000   -0.25000000          2/200
   4:     0.15000000   -0.15000000    0.25000000          2/200
   5:     0.15000000   -0.05000000   -0.25000000          4/200
   6:     0.15000000   -0.05000000    0.25000000          4/200
   7:     0.15000000    0.05000000   -0.25000000          4/200
   8:     0.15000000    0.05000000    0.25000000          4/200
   9:     0.15000000    0.15000000    0.25000000          4/200
          ...
  54:     0.45000000    0.45000000    0.25000000          4/200

Wave functions: Plane wave expansion
  Cutoff energy: 600.000 eV
  Number of coefficients (min, max): 5258, 5306
  Pulay-stress correction: 0.000000 eV/Ang^3 (de/decut=0.000000)
  Using Numpy's FFT
  ScaLapack parameters: grid=1x1, blocksize=None
  Wavefunction extrapolation:
    Improved wavefunction reuse through dual PAW basis 

Occupation numbers: Fermi-Dirac:
  width: 0.1000  # eV
 

Eigensolver
   Davidson(niter=2) 

Densities:
  Coarse grid: 21*21*80 grid
  Fine grid: 42*42*160 grid
  Total Charge: 0.000000 

Density mixing:
  Method: separate
  Backend: pulay
  Linear mixing parameter: 0.05
  old densities: 5
  Damping of long wavelength oscillations: 50 

Hamiltonian:
  XC and Coulomb potentials evaluated on a 42*42*160 grid
  Using the vdW-DF2 Exchange-Correlation functional
  External potential:
    NoExternalPotential
 

XC parameters: vdW-DF2 with 2 nearest neighbor stencil

Memory estimate:
  Process memory now: 990.67 MiB
  Calculator: 238.02 MiB
    Density: 16.70 MiB
      Arrays: 7.00 MiB
      Localized functions: 7.01 MiB
      Mixer: 2.69 MiB
    Hamiltonian: 4.75 MiB
      Arrays: 4.58 MiB
      XC: 0.00 MiB
      Poisson: 0.00 MiB
      vbar: 0.17 MiB
    Wavefunctions: 216.57 MiB
      Arrays psit_nG: 160.31 MiB
      Eigensolver: 3.52 MiB
      Projections: 2.66 MiB
      Projectors: 44.29 MiB
      PW-descriptor: 5.80 MiB

Total number of cores used: 1

Number of atoms: 6
Number of atomic orbitals: 42
Number of bands in calculation: 36
Number of valence electrons: 52
Bands to converge: occupied

... initialized

Initializing position-dependent things.

Density initialized from atomic densities
Creating initial wave functions:
  36 bands from LCAO basis set

                  
                  
                  
                  
                  
       Te         
                  
                  
                  
                  
                  
                  
         Te       
                  
                  
                  
       W          
                  
                  
                  
                  
                  
                  
         W        
                  
         Te       
                  
                  
                  
                  
                  
                  
                  
                  
                  
       Te         
                  
                  
                  
                  

Positions:
   0 W      1.798000    1.038076    3.530000    ( 0.0000,  0.0000,  0.0000)
   1 W      1.798000   -1.038076   10.590000    ( 0.0000,  0.0000,  0.0000)
   2 Te     1.798000    1.038076   12.284400    ( 0.0000,  0.0000,  0.0000)
   3 Te     1.798000   -1.038076   -5.224400    ( 0.0000,  0.0000,  0.0000)
   4 Te     1.798000    1.038076    1.835600    ( 0.0000,  0.0000,  0.0000)
   5 Te     1.798000   -1.038076   19.344400    ( 0.0000,  0.0000,  0.0000)

Unit cell:
           periodic     x           y           z      points  spacing
  1. axis:    yes    1.798000   -3.114227    0.000000    21     0.1483
  2. axis:    yes    1.798000    3.114227    0.000000    21     0.1483
  3. axis:    yes    0.000000    0.000000   14.120000    80     0.1765

  Lengths:   3.596000   3.596000  14.120000
  Angles:   90.000000  90.000000 120.000000

Effective grid spacing dv^(1/3) = 0.1649

     iter     time        total  log10-change:
                         energy   eigst   dens
iter:   1 16:04:29  -707.124379
iter:   2 16:04:43  -705.004394   -0.67  -0.96
iter:   3 16:04:57  -703.504919   -1.23  -1.10
iter:   4 16:05:11  -702.405137   -1.55  -1.22
iter:   5 16:05:25  -702.002351   -1.65  -1.41
iter:   6 16:05:40  -701.993582   -2.45  -1.79
iter:   7 16:05:55  -701.997165c  -3.05  -1.89
iter:   8 16:06:09  -702.012521c  -2.48  -1.95
iter:   9 16:06:23  -702.010511c  -3.17  -2.31
iter:  10 16:06:37  -702.011149c  -3.88  -2.55
iter:  11 16:06:52  -702.009622c  -3.92  -2.59
iter:  12 16:07:06  -702.009812c  -4.52  -2.83
iter:  13 16:07:20  -702.009448c  -4.62  -2.94
iter:  14 16:07:35  -702.009518c  -5.23  -3.19
iter:  15 16:07:49  -702.009423c  -6.04  -3.30
iter:  16 16:08:04  -702.009389c  -5.81  -3.38
iter:  17 16:08:18  -702.009399c  -6.96  -3.59
iter:  18 16:08:33  -702.009436c  -6.29  -3.66
iter:  19 16:08:47  -702.009422c  -7.20  -3.78
iter:  20 16:09:01  -702.009402c  -7.29  -3.83
iter:  21 16:09:16  -702.009411c  -6.97  -3.94
iter:  22 16:09:31  -702.009421c  -7.23  -4.11c
iter:  23 16:09:45  -702.009413c  -7.60c -4.18c

Converged after 23 iterations.

Dipole moment: (-0.000000, -0.000000, -0.197025) |e|*Ang

Energy contributions relative to reference atoms: (reference = -1616751.480151)

Kinetic:       +536.558895
Potential:     -454.155344
External:        +0.000000
XC:            -782.556611
Entropy (-ST):   -0.081359
Local:           -1.815673
SIC:             +0.000000
--------------------------
Free energy:   -702.050092
Extrapolated:  -702.009413

Showing only first 2 kpts
 Kpt  Band  Eigenvalues  Occupancy
  0    24      7.34927    1.99998
  0    25      8.41852    1.46605
  0    26      9.76473    0.00001
  0    27      9.86547    0.00000

  1    24      7.34927    1.99998
  1    25      8.41852    1.46605
  1    26      9.76473    0.00001
  1    27      9.86547    0.00000


Fermi level: 8.51953

No gap
No difference between direct/indirect transitions

Forces in eV/Ang:
  0 W     0.00000    0.00000   77.33575
  1 W     0.00000    0.00000   77.33575
  2 Te   -0.00000    0.00000    2.25304
  3 Te    0.00000    0.00000  -79.58381
  4 Te   -0.00000    0.00000  -79.58381
  5 Te    0.00000    0.00000    2.25304

System changes: positions 

Initializing position-dependent things.

Density initialized from wave functions
                  
                  
                  
                  
                  
       Te         
                  
                  
                  
                  
                  
                  
         Te       
                  
                  
                  
       W          
                  
                  
                  
                  
                  
                  
         W        
                  
         Te       
                  
                  
                  
                  
                  
                  
                  
                  
                  
       Te         
                  
                  
                  
                  

Positions:
   0 W      1.798000    1.038076    3.724350    ( 0.0000,  0.0000,  0.0000)
   1 W      1.798000   -1.038076   10.784350    ( 0.0000,  0.0000,  0.0000)
   2 Te     1.798000    1.038076   12.290062    ( 0.0000,  0.0000,  0.0000)
   3 Te     1.798000   -1.038076   -5.424400    ( 0.0000,  0.0000,  0.0000)
   4 Te     1.798000    1.038076    1.635600    ( 0.0000,  0.0000,  0.0000)
   5 Te     1.798000   -1.038076   19.350062    ( 0.0000,  0.0000,  0.0000)

Unit cell:
           periodic     x           y           z      points  spacing
  1. axis:    yes    1.798000   -3.114227    0.000000    21     0.1483
  2. axis:    yes    1.798000    3.114227    0.000000    21     0.1483
  3. axis:    yes    0.000000    0.000000   14.120000    80     0.1765

  Lengths:   3.596000   3.596000  14.120000
  Angles:   90.000000  90.000000 120.000000

Effective grid spacing dv^(1/3) = 0.1649

     iter     time        total  log10-change:
                         energy   eigst   dens
iter:   1 16:10:01  -754.533360   +0.49
iter:   2 16:10:15  -746.247142   -0.86  -0.70
iter:   3 16:10:30  -735.061964   -0.17  -0.81
iter:   4 16:10:44  -734.983727   -1.89  -1.43
iter:   5 16:10:59  -734.834102   -2.32  -1.51
iter:   6 16:11:13  -734.400711   -1.57  -1.60
iter:   7 16:11:27  -734.385351   -3.16  -1.95
iter:   8 16:11:42  -734.365365   -3.14  -2.00
iter:   9 16:11:56  -734.336518   -2.82  -2.10
iter:  10 16:12:09  -734.316858   -3.21  -2.14
iter:  11 16:12:22  -734.314608c  -3.61  -2.47
iter:  12 16:12:35  -734.314548c  -4.48  -2.68
iter:  13 16:12:48  -734.313936c  -3.89  -2.73
iter:  14 16:13:00  -734.313444c  -4.57  -2.93
iter:  15 16:13:13  -734.313452c  -5.39  -3.32
iter:  16 16:13:26  -734.313450c  -6.38  -3.39
iter:  17 16:13:39  -734.313337c  -5.75  -3.40
iter:  18 16:13:52  -734.313333c  -5.88  -3.67
iter:  19 16:14:04  -734.313308c  -6.54  -3.91
iter:  20 16:14:17  -734.313321c  -6.54  -4.00
iter:  21 16:14:30  -734.313321c  -8.20c -4.20c

Converged after 21 iterations.

Dipole moment: (-0.000000, 0.000008, -0.569715) |e|*Ang

Energy contributions relative to reference atoms: (reference = -1616751.480151)

Kinetic:       +235.760451
Potential:     -207.551829
External:        +0.000000
XC:            -761.813285
Entropy (-ST):   -0.125909
Local:           -0.645703
SIC:             +0.000000
--------------------------
Free energy:   -734.376275
Extrapolated:  -734.313321

Showing only first 2 kpts
 Kpt  Band  Eigenvalues  Occupancy
  0    24      8.17937    1.80559
  0    25      9.14375    0.00120
  0    26      9.82513    0.00000
  0    27      9.90461    0.00000

  1    24      8.17937    1.80559
  1    25      9.14375    0.00120
  1    26      9.82513    0.00000
  1    27      9.90461    0.00000


Fermi level: 8.40223

No gap
No difference between direct/indirect transitions

Forces in eV/Ang:
  0 W    -0.00000    0.00000   13.83478
  1 W     0.00000    0.00000   13.83426
  2 Te   -0.00000   -0.00000    3.36385
  3 Te    0.00000    0.00000  -17.19092
  4 Te    0.00000    0.00000  -17.19139
  5 Te   -0.00000    0.00000    3.36441

System changes: positions 

Initializing position-dependent things.

Density initialized from wave functions
                  
                  
                  
                  
                  
       Te         
                  
                  
                  
                  
                  
                  
                  
         Te       
                  
                  
       W          
                  
                  
                  
                  
                  
                  
         W        
                  
                  
         Te       
                  
                  
                  
                  
                  
                  
                  
                  
                  
       Te         
                  
                  
                  
                  

Positions:
   0 W      1.798000    1.038076    3.747213    ( 0.0000,  0.0000,  0.0000)
   1 W      1.798000   -1.038076   10.807213    ( 0.0000,  0.0000,  0.0000)
   2 Te     1.798000    1.038076   12.343507    ( 0.0000,  0.0000,  0.0000)
   3 Te     1.798000   -1.038076   -5.500588    ( 0.0000,  0.0000,  0.0000)
   4 Te     1.798000    1.038076    1.559412    ( 0.0000,  0.0000,  0.0000)
   5 Te     1.798000   -1.038076   19.403507    ( 0.0000,  0.0000,  0.0000)

Unit cell:
           periodic     x           y           z      points  spacing
  1. axis:    yes    1.798000   -3.114227    0.000000    21     0.1483
  2. axis:    yes    1.798000    3.114227    0.000000    21     0.1483
  3. axis:    yes    0.000000    0.000000   14.120000    80     0.1765

  Lengths:   3.596000   3.596000  14.120000
  Angles:   90.000000  90.000000 120.000000

Effective grid spacing dv^(1/3) = 0.1649

     iter     time        total  log10-change:
                         energy   eigst   dens
iter:   1 16:14:44  -737.494731   -1.25
iter:   2 16:14:56  -737.365891   -2.56  -1.58
iter:   3 16:15:09  -737.223751   -2.28  -1.70
iter:   4 16:15:22  -737.217843   -3.57  -2.14
iter:   5 16:15:35  -737.209620c  -3.93  -2.20
iter:   6 16:15:47  -737.204263c  -3.82  -2.31
iter:   7 16:16:00  -737.196972c  -3.64  -2.42
iter:   8 16:16:13  -737.196532c  -4.82  -2.81
iter:   9 16:16:25  -737.196167c  -4.51  -2.85
iter:  10 16:16:38  -737.195726c  -5.20  -3.06
iter:  11 16:16:51  -737.195697c  -6.06  -3.31
iter:  12 16:17:04  -737.195694c  -6.64  -3.41
iter:  13 16:17:16  -737.195683c  -6.36  -3.44
iter:  14 16:17:29  -737.195582c  -5.99  -3.59
iter:  15 16:17:42  -737.195572c  -6.91  -4.07c
iter:  16 16:17:55  -737.195574c  -7.82c -4.12c

Converged after 16 iterations.

Dipole moment: (-0.000000, -0.000023, -0.712210) |e|*Ang

Energy contributions relative to reference atoms: (reference = -1616751.480151)

Kinetic:       +185.430536
Potential:     -164.602250
External:        +0.000000
XC:            -757.429541
Entropy (-ST):   -0.137694
Local:           -0.525472
SIC:             +0.000000
--------------------------
Free energy:   -737.264421
Extrapolated:  -737.195574

Showing only first 2 kpts
 Kpt  Band  Eigenvalues  Occupancy
  0    24      8.18376    1.64032
  0    25      9.15534    0.00055
  0    26      9.75812    0.00000
  0    27      9.83833    0.00000

  1    24      8.18376    1.64032
  1    25      9.15534    0.00055
  1    26      9.75812    0.00000
  1    27      9.83833    0.00000


Fermi level: 8.33550

No gap
No difference between direct/indirect transitions

Forces in eV/Ang:
  0 W    -0.00000    0.00000    7.97161
  1 W     0.00000    0.00000    7.97196
  2 Te    0.00000    0.00000    2.53466
  3 Te    0.00000    0.00000  -10.51609
  4 Te    0.00000   -0.00000  -10.51592
  5 Te   -0.00000    0.00000    2.53381

System changes: positions 

Initializing position-dependent things.

Density initialized from wave functions
                  
                  
                  
                  
                  
       Te         
                  
                  
                  
                  
                  
                  
                  
         Te       
                  
                  
       W          
                  
                  
                  
                  
                  
                  
         W        
                  
                  
         Te       
                  
                  
                  
                  
                  
                  
                  
                  
                  
       Te         
                  
                  
                  
                  

Positions:
   0 W      1.798000    1.038076    3.773604    ( 0.0000,  0.0000,  0.0000)
   1 W      1.798000   -1.038076   10.833604    ( 0.0000,  0.0000,  0.0000)
   2 Te     1.798000    1.038076   12.448190    ( 0.0000,  0.0000,  0.0000)
   3 Te     1.798000   -1.038076   -5.632016    ( 0.0000,  0.0000,  0.0000)
   4 Te     1.798000    1.038076    1.427984    ( 0.0000,  0.0000,  0.0000)
   5 Te     1.798000   -1.038076   19.508190    ( 0.0000,  0.0000,  0.0000)

Unit cell:
           periodic     x           y           z      points  spacing
  1. axis:    yes    1.798000   -3.114227    0.000000    21     0.1483
  2. axis:    yes    1.798000    3.114227    0.000000    21     0.1483
  3. axis:    yes    0.000000    0.000000   14.120000    80     0.1765

  Lengths:   3.596000   3.596000  14.120000
  Angles:   90.000000  90.000000 120.000000

Effective grid spacing dv^(1/3) = 0.1649

     iter     time        total  log10-change:
                         energy   eigst   dens
iter:   1 16:18:09  -740.046382   -0.93
iter:   2 16:18:22  -739.849289   -2.33  -1.47
iter:   3 16:18:34  -739.603416   -2.08  -1.58
iter:   4 16:18:47  -739.590031   -3.38  -2.01
iter:   5 16:19:00  -739.579041c  -3.67  -2.08
iter:   6 16:19:13  -739.570630c  -3.70  -2.17
iter:   7 16:19:26  -739.558655c  -3.41  -2.27
iter:   8 16:19:39  -739.557981c  -4.56  -2.62
iter:   9 16:19:52  -739.556583c  -3.99  -2.66
iter:  10 16:20:05  -739.555819c  -4.80  -2.93
iter:  11 16:20:17  -739.555775c  -5.65  -3.21
iter:  12 16:20:30  -739.555827c  -5.50  -3.24
iter:  13 16:20:43  -739.555693c  -5.43  -3.36
iter:  14 16:20:56  -739.555680c  -6.56  -3.60
iter:  15 16:21:09  -739.555632c  -6.60  -3.75
iter:  16 16:21:22  -739.555625c  -7.35  -3.85
iter:  17 16:21:35  -739.555616c  -7.89c -3.95
iter:  18 16:21:48  -739.555595c  -7.19  -4.02c
iter:  19 16:22:01  -739.555600c  -7.94c -4.27c

Converged after 19 iterations.

Dipole moment: (-0.000000, -0.000014, -1.062340) |e|*Ang

Energy contributions relative to reference atoms: (reference = -1616751.480151)

Kinetic:       +122.713960
Potential:     -110.197529
External:        +0.000000
XC:            -751.493787
Entropy (-ST):   -0.155141
Local:           -0.500674
SIC:             +0.000000
--------------------------
Free energy:   -739.633171
Extrapolated:  -739.555600

Showing only first 2 kpts
 Kpt  Band  Eigenvalues  Occupancy
  0    24      8.13780    1.51731
  0    25      9.12037    0.00034
  0    26      9.61159    0.00000
  0    27      9.69389    0.00000

  1    24      8.13780    1.51730
  1    25      9.12036    0.00034
  1    26      9.61159    0.00000
  1    27      9.69389    0.00000


Fermi level: 8.25233

No gap
No difference between direct/indirect transitions

Forces in eV/Ang:
  0 W    -0.00000   -0.00000    2.79621
  1 W     0.00000    0.00000    2.79752
  2 Te   -0.00000    0.00000    0.68986
  3 Te   -0.00000   -0.00000   -3.48689
  4 Te    0.00000   -0.00000   -3.48599
  5 Te    0.00000    0.00000    0.68957

System changes: positions 

Initializing position-dependent things.

Density initialized from wave functions
                  
                  
                  
                  
                  
       Te         
                  
                  
                  
                  
                  
                  
         Te       
                  
                  
                  
       W          
                  
                  
                  
                  
                  
                  
         W        
                  
                  
         Te       
                  
                  
                  
                  
                  
                  
                  
                  
                  
       Te         
                  
                  
                  
                  

Positions:
   0 W      1.798000    1.038076    3.788321    ( 0.0000,  0.0000,  0.0000)
   1 W      1.798000   -1.038076   10.848321    ( 0.0000,  0.0000,  0.0000)
   2 Te     1.798000    1.038076   12.495959    ( 0.0000,  0.0000,  0.0000)
   3 Te     1.798000   -1.038076   -5.694602    ( 0.0000,  0.0000,  0.0000)
   4 Te     1.798000    1.038076    1.365398    ( 0.0000,  0.0000,  0.0000)
   5 Te     1.798000   -1.038076   19.555959    ( 0.0000,  0.0000,  0.0000)

Unit cell:
           periodic     x           y           z      points  spacing
  1. axis:    yes    1.798000   -3.114227    0.000000    21     0.1483
  2. axis:    yes    1.798000    3.114227    0.000000    21     0.1483
  3. axis:    yes    0.000000    0.000000   14.120000    80     0.1765

  Lengths:   3.596000   3.596000  14.120000
  Angles:   90.000000  90.000000 120.000000

Effective grid spacing dv^(1/3) = 0.1649

     iter     time        total  log10-change:
                         energy   eigst   dens
iter:   1 16:22:15  -740.022996   -1.63
iter:   2 16:22:27  -739.980126   -3.08  -1.79
iter:   3 16:22:40  -739.942083   -2.91  -1.90
iter:   4 16:22:53  -739.924861   -3.54  -2.10
iter:   5 16:23:06  -739.922749c  -4.65  -2.41
iter:   6 16:23:19  -739.919752c  -3.85  -2.47
iter:   7 16:23:32  -739.917638c  -4.16  -2.63
iter:   8 16:23:45  -739.917519c  -5.25  -2.95
iter:   9 16:23:57  -739.917393c  -4.95  -2.99
iter:  10 16:24:10  -739.917305c  -5.68  -3.22
iter:  11 16:24:23  -739.917248c  -6.06  -3.31
iter:  12 16:24:36  -739.917239c  -6.92  -3.54
iter:  13 16:24:49  -739.917219c  -6.27  -3.56
iter:  14 16:25:02  -739.917215c  -6.96  -3.70
iter:  15 16:25:15  -739.917203c  -6.84  -3.82
iter:  16 16:25:28  -739.917170c  -6.82  -3.96
iter:  17 16:25:41  -739.917167c  -7.83c -4.30c

Converged after 17 iterations.

Dipole moment: (-0.000000, -0.000010, -1.308348) |e|*Ang

Energy contributions relative to reference atoms: (reference = -1616751.480151)

Kinetic:       +101.387072
Potential:      -91.338044
External:        +0.000000
XC:            -749.352109
Entropy (-ST):   -0.170613
Local:           -0.528780
SIC:             +0.000000
--------------------------
Free energy:   -740.002473
Extrapolated:  -739.917167

Showing only first 2 kpts
 Kpt  Band  Eigenvalues  Occupancy
  0    24      8.14055    1.42574
  0    25      9.12615    0.00026
  0    26      9.52705    0.00000
  0    27      9.60774    0.00000

  1    24      8.14055    1.42574
  1    25      9.12615    0.00026
  1    26      9.52705    0.00000
  1    27      9.60774    0.00000


Fermi level: 8.23149

No gap
No difference between direct/indirect transitions

Forces in eV/Ang:
  0 W     0.00000   -0.00000    1.40891
  1 W     0.00000    0.00000    1.41037
  2 Te    0.00000   -0.00000   -0.21238
  3 Te   -0.00000    0.00000   -1.18736
  4 Te   -0.00000    0.00000   -1.18641
  5 Te    0.00000    0.00000   -0.21252

System changes: positions 

Initializing position-dependent things.

Density initialized from wave functions
                  
                  
                  
                  
                  
       Te         
                  
                  
                  
                  
                  
                  
         Te       
                  
                  
                  
       W          
                  
                  
                  
                  
                  
                  
         W        
                  
                  
         Te       
                  
                  
                  
                  
                  
                  
                  
                  
                  
       Te         
                  
                  
                  
                  

Positions:
   0 W      1.798000    1.038076    3.800383    ( 0.0000,  0.0000,  0.0000)
   1 W      1.798000   -1.038076   10.860383    ( 0.0000,  0.0000,  0.0000)
   2 Te     1.798000    1.038076   12.508695    ( 0.0000,  0.0000,  0.0000)
   3 Te     1.798000   -1.038076   -5.719240    ( 0.0000,  0.0000,  0.0000)
   4 Te     1.798000    1.038076    1.340760    ( 0.0000,  0.0000,  0.0000)
   5 Te     1.798000   -1.038076   19.568695    ( 0.0000,  0.0000,  0.0000)

Unit cell:
           periodic     x           y           z      points  spacing
  1. axis:    yes    1.798000   -3.114227    0.000000    21     0.1483
  2. axis:    yes    1.798000    3.114227    0.000000    21     0.1483
  3. axis:    yes    0.000000    0.000000   14.120000    80     0.1765

  Lengths:   3.596000   3.596000  14.120000
  Angles:   90.000000  90.000000 120.000000

Effective grid spacing dv^(1/3) = 0.1649

     iter     time        total  log10-change:
                         energy   eigst   dens
iter:   1 16:25:54  -740.012199   -2.27
iter:   2 16:26:07  -739.992532   -3.66  -1.97
iter:   3 16:26:20  -739.982086   -3.49  -2.10
iter:   4 16:26:33  -739.969862c  -3.74  -2.19
iter:   5 16:26:46  -739.969376c  -4.63  -2.73
iter:   6 16:26:58  -739.968902c  -4.73  -2.84
iter:   7 16:27:11  -739.968268c  -4.87  -2.93
iter:   8 16:27:24  -739.968234c  -5.83  -3.31
iter:   9 16:27:37  -739.968236c  -6.06  -3.35
iter:  10 16:27:50  -739.968230c  -5.98  -3.51
iter:  11 16:28:02  -739.968220c  -6.79  -3.73
iter:  12 16:28:15  -739.968183c  -6.40  -3.91
iter:  13 16:28:28  -739.968184c  -6.81  -3.92
iter:  14 16:28:41  -739.968181c  -8.01c -4.56c

Converged after 14 iterations.

Dipole moment: (-0.000000, 0.000017, -1.442629) |e|*Ang

Energy contributions relative to reference atoms: (reference = -1616751.480151)

Kinetic:        +94.926147
Potential:      -85.561141
External:        +0.000000
XC:            -748.718658
Entropy (-ST):   -0.181279
Local:           -0.523889
SIC:             +0.000000
--------------------------
Free energy:   -740.058821
Extrapolated:  -739.968181

Showing only first 2 kpts
 Kpt  Band  Eigenvalues  Occupancy
  0    24      8.16824    1.28372
  0    25      9.15489    0.00019
  0    26      9.50013    0.00001
  0    27      9.57898    0.00000

  1    24      8.16824    1.28372
  1    25      9.15489    0.00019
  1    26      9.50013    0.00001
  1    27      9.57898    0.00000


Fermi level: 8.22658

No gap
No difference between direct/indirect transitions

Forces in eV/Ang:
  0 W     0.00000    0.00000    0.82371
  1 W     0.00000    0.00000    0.82342
  2 Te    0.00000    0.00000   -0.44187
  3 Te   -0.00000    0.00000   -0.38080
  4 Te   -0.00000    0.00000   -0.38039
  5 Te    0.00000    0.00000   -0.44094

System changes: positions 

Initializing position-dependent things.

Density initialized from wave functions
                  
                  
                  
                  
                  
       Te         
                  
                  
                  
                  
                  
                  
         Te       
                  
                  
                  
       W          
                  
                  
                  
                  
                  
                  
         W        
                  
                  
         Te       
                  
                  
                  
                  
                  
                  
                  
                  
                  
       Te         
                  
                  
                  
                  

Positions:
   0 W      1.798000    1.038076    3.811430    ( 0.0000,  0.0000,  0.0000)
   1 W      1.798000   -1.038076   10.871430    ( 0.0000,  0.0000,  0.0000)
   2 Te     1.798000    1.038076   12.507106    ( 0.0000,  0.0000,  0.0000)
   3 Te     1.798000   -1.038076   -5.728641    ( 0.0000,  0.0000,  0.0000)
   4 Te     1.798000    1.038076    1.331359    ( 0.0000,  0.0000,  0.0000)
   5 Te     1.798000   -1.038076   19.567106    ( 0.0000,  0.0000,  0.0000)

Unit cell:
           periodic     x           y           z      points  spacing
  1. axis:    yes    1.798000   -3.114227    0.000000    21     0.1483
  2. axis:    yes    1.798000    3.114227    0.000000    21     0.1483
  3. axis:    yes    0.000000    0.000000   14.120000    80     0.1765

  Lengths:   3.596000   3.596000  14.120000
  Angles:   90.000000  90.000000 120.000000

Effective grid spacing dv^(1/3) = 0.1649

     iter     time        total  log10-change:
                         energy   eigst   dens
iter:   1 16:28:55  -740.015140   -2.56
iter:   2 16:29:07  -739.999758   -3.95  -2.05
iter:   3 16:29:20  -739.985232   -3.49  -2.20
iter:   4 16:29:33  -739.984659c  -4.20  -2.70
iter:   5 16:29:46  -739.984312c  -5.16  -2.88
iter:   6 16:29:59  -739.984121c  -5.49  -3.08
iter:   7 16:30:11  -739.983882c  -5.42  -3.14
iter:   8 16:30:24  -739.983875c  -6.29  -3.61
iter:   9 16:30:37  -739.983872c  -6.69  -3.64
iter:  10 16:30:50  -739.983848c  -6.41  -3.79
iter:  11 16:31:03  -739.983846c  -7.10  -4.09c
iter:  12 16:31:16  -739.983846c  -8.20c -4.24c

Converged after 12 iterations.

Dipole moment: (-0.000000, 0.000000, -1.518130) |e|*Ang

Energy contributions relative to reference atoms: (reference = -1616751.480151)

Kinetic:        +93.286198
Potential:      -84.052548
External:        +0.000000
XC:            -748.602304
Entropy (-ST):   -0.188021
Local:           -0.521182
SIC:             +0.000000
--------------------------
Free energy:   -740.077856
Extrapolated:  -739.983846

Showing only first 2 kpts
 Kpt  Band  Eigenvalues  Occupancy
  0    24      8.20367    1.09954
  0    25      9.19115    0.00013
  0    26      9.50076    0.00001
  0    27      9.57840    0.00000

  1    24      8.20367    1.09954
  1    25      9.19115    0.00013
  1    26      9.50076    0.00001
  1    27      9.57840    0.00000


Fermi level: 8.22365

No gap
No difference between direct/indirect transitions

Forces in eV/Ang:
  0 W     0.00000    0.00000    0.44007
  1 W     0.00000    0.00000    0.44039
  2 Te    0.00000    0.00000   -0.38048
  3 Te    0.00000    0.00000   -0.05713
  4 Te   -0.00000   -0.00000   -0.05704
  5 Te   -0.00000   -0.00000   -0.38057

System changes: positions 

Initializing position-dependent things.

Density initialized from wave functions
                  
                  
                  
                  
                  
       Te         
                  
                  
                  
                  
                  
                  
         Te       
                  
                  
                  
       W          
                  
                  
                  
                  
                  
                  
         W        
                  
                  
         Te       
                  
                  
                  
                  
                  
                  
                  
                  
                  
       Te         
                  
                  
                  
                  

Positions:
   0 W      1.798000    1.038076    3.823224    ( 0.0000,  0.0000,  0.0000)
   1 W      1.798000   -1.038076   10.883224    ( 0.0000,  0.0000,  0.0000)
   2 Te     1.798000    1.038076   12.498361    ( 0.0000,  0.0000,  0.0000)
   3 Te     1.798000   -1.038076   -5.731579    ( 0.0000,  0.0000,  0.0000)
   4 Te     1.798000    1.038076    1.328421    ( 0.0000,  0.0000,  0.0000)
   5 Te     1.798000   -1.038076   19.558361    ( 0.0000,  0.0000,  0.0000)

Unit cell:
           periodic     x           y           z      points  spacing
  1. axis:    yes    1.798000   -3.114227    0.000000    21     0.1483
  2. axis:    yes    1.798000    3.114227    0.000000    21     0.1483
  3. axis:    yes    0.000000    0.000000   14.120000    80     0.1765

  Lengths:   3.596000   3.596000  14.120000
  Angles:   90.000000  90.000000 120.000000

Effective grid spacing dv^(1/3) = 0.1649

     iter     time        total  log10-change:
                         energy   eigst   dens
iter:   1 16:31:30  -740.026345   -2.52
iter:   2 16:31:42  -740.008848   -3.90  -2.03
iter:   3 16:31:55  -739.995260   -3.55  -2.20
iter:   4 16:32:08  -739.993450c  -4.42  -2.52
iter:   5 16:32:21  -739.992365c  -4.33  -2.71
iter:   6 16:32:34  -739.992137c  -5.06  -3.07
iter:   7 16:32:46  -739.991969c  -5.33  -3.14
iter:   8 16:32:59  -739.991958c  -5.88  -3.53
iter:   9 16:33:12  -739.991947c  -6.78  -3.64
iter:  10 16:33:25  -739.991934c  -6.96  -3.69
iter:  11 16:33:38  -739.991876c  -6.20  -3.71
iter:  12 16:33:51  -739.991874c  -7.17  -4.17c
iter:  13 16:34:03  -739.991877c  -7.42c -4.20c

Converged after 13 iterations.

Dipole moment: (-0.000000, -0.000005, -1.567604) |e|*Ang

Energy contributions relative to reference atoms: (reference = -1616751.480151)

Kinetic:        +93.724112
Potential:      -84.377529
External:        +0.000000
XC:            -748.720011
Entropy (-ST):   -0.193000
Local:           -0.521949
SIC:             +0.000000
--------------------------
Free energy:   -740.088377
Extrapolated:  -739.991877

Showing only first 2 kpts
 Kpt  Band  Eigenvalues  Occupancy
  0    24      8.24813    0.86301
  0    25      9.23686    0.00008
  0    26      9.51550    0.00000
  0    27      9.59226    0.00000

  1    24      8.24813    0.86301
  1    25      9.23686    0.00008
  1    26      9.51551    0.00000
  1    27      9.59226    0.00000


Fermi level: 8.22056

No gap
No difference between direct/indirect transitions

Forces in eV/Ang:
  0 W    -0.00000    0.00000    0.06985
  1 W     0.00000   -0.00000    0.07021
  2 Te    0.00000    0.00000   -0.16107
  3 Te   -0.00000    0.00000    0.10750
  4 Te   -0.00000    0.00000    0.10753
  5 Te    0.00000    0.00000   -0.16121

System changes: positions 

Initializing position-dependent things.

Density initialized from wave functions
                  
                  
                  
                  
                  
       Te         
                  
                  
                  
                  
                  
                  
         Te       
                  
                  
                  
       W          
                  
                  
                  
                  
                  
                  
         W        
                  
                  
         Te       
                  
                  
                  
                  
                  
                  
                  
                  
                  
       Te         
                  
                  
                  
                  

Positions:
   0 W      1.798000    1.038076    3.826340    ( 0.0000,  0.0000,  0.0000)
   1 W      1.798000   -1.038076   10.886340    ( 0.0000,  0.0000,  0.0000)
   2 Te     1.798000    1.038076   12.492771    ( 0.0000,  0.0000,  0.0000)
   3 Te     1.798000   -1.038076   -5.728781    ( 0.0000,  0.0000,  0.0000)
   4 Te     1.798000    1.038076    1.331219    ( 0.0000,  0.0000,  0.0000)
   5 Te     1.798000   -1.038076   19.552771    ( 0.0000,  0.0000,  0.0000)

Unit cell:
           periodic     x           y           z      points  spacing
  1. axis:    yes    1.798000   -3.114227    0.000000    21     0.1483
  2. axis:    yes    1.798000    3.114227    0.000000    21     0.1483
  3. axis:    yes    0.000000    0.000000   14.120000    80     0.1765

  Lengths:   3.596000   3.596000  14.120000
  Angles:   90.000000  90.000000 120.000000

Effective grid spacing dv^(1/3) = 0.1649

     iter     time        total  log10-change:
                         energy   eigst   dens
iter:   1 16:34:17  -739.996369   -3.49
iter:   2 16:34:30  -739.994841   -4.91  -2.59
iter:   3 16:34:43  -739.993729c  -4.79  -2.78
iter:   4 16:34:56  -739.993649c  -5.55  -3.12
iter:   5 16:35:08  -739.993549c  -5.26  -3.19
iter:   6 16:35:21  -739.993515c  -5.96  -3.52
iter:   7 16:35:34  -739.993529c  -6.01  -3.59
iter:   8 16:35:47  -739.993532c  -7.01  -4.00c
iter:   9 16:36:00  -739.993527c  -7.88c -4.06c

Converged after 9 iterations.

Dipole moment: (-0.000000, 0.000007, -1.561480) |e|*Ang

Energy contributions relative to reference atoms: (reference = -1616751.480151)

Kinetic:        +94.881138
Potential:      -85.369791
External:        +0.000000
XC:            -748.863733
Entropy (-ST):   -0.193255
Local:           -0.544513
SIC:             +0.000000
--------------------------
Free energy:   -740.090155
Extrapolated:  -739.993527

Showing only first 2 kpts
 Kpt  Band  Eigenvalues  Occupancy
  0    24      8.26358    0.78327
  0    25      9.25230    0.00007
  0    26      9.52589    0.00000
  0    27      9.60253    0.00000

  1    24      8.26358    0.78327
  1    25      9.25230    0.00007
  1    26      9.52589    0.00000
  1    27      9.60253    0.00000


Fermi level: 8.21954

No gap
No difference between direct/indirect transitions

Forces in eV/Ang:
  0 W     0.00000    0.00000   -0.02046
  1 W     0.00000   -0.00000   -0.02140
  2 Te    0.00000    0.00000   -0.03890
  3 Te    0.00000    0.00000    0.04582
  4 Te   -0.00000    0.00000    0.04524
  5 Te   -0.00000    0.00000   -0.03895

Timing:                                      incl.     excl.
-------------------------------------------------------------------
Density initialized from wave functions:     6.580     6.563   0.3% |
 Symmetrize density:                         0.017     0.017   0.0% |
Forces:                                      6.227     6.227   0.3% |
Hamiltonian:                                 8.185     0.008   0.0% |
 Atomic:                                     1.279     0.005   0.0% |
  XC Correction:                             1.274     1.274   0.1% |
 Calculate atomic Hamiltonians:              0.067     0.067   0.0% |
 Communicate:                                0.000     0.000   0.0% |
 Initialize Hamiltonian:                     0.000     0.000   0.0% |
 Poisson:                                    0.005     0.005   0.0% |
 XC 3D grid:                                 6.826     1.079   0.0% |
  VdW-DF integral:                           5.748     0.295   0.0% |
   Convolution:                              1.044     1.044   0.0% |
   FFT:                                      0.384     0.384   0.0% |
   gather:                                   0.003     0.003   0.0% |
   hmm1:                                     0.018     0.018   0.0% |
   hmm2:                                     0.741     0.741   0.0% |
   iFFT:                                     0.523     0.523   0.0% |
   potential:                                1.162     0.009   0.0% |
    collect:                                 0.000     0.000   0.0% |
    p1:                                      0.144     0.144   0.0% |
    p2:                                      1.008     1.008   0.0% |
    sum:                                     0.000     0.000   0.0% |
   splines:                                  1.578     1.578   0.1% |
LCAO initialization:                        10.487     0.051   0.0% |
 LCAO eigensolver:                           3.744     0.003   0.0% |
  Calculate projections:                     0.006     0.006   0.0% |
  DenseAtomicCorrection:                     0.015     0.015   0.0% |
  Distribute overlap matrix:                 0.002     0.002   0.0% |
  Orbital Layouts:                           2.003     2.003   0.1% |
  Potential matrix:                          0.209     0.209   0.0% |
  Sum over cells:                            1.506     1.506   0.1% |
 LCAO to grid:                               6.320     6.320   0.3% |
 Set positions (LCAO WFS):                   0.372     0.047   0.0% |
  Basic WFS set positions:                   0.000     0.000   0.0% |
  Basis functions set positions:             0.000     0.000   0.0% |
  P tci:                                     0.218     0.218   0.0% |
  ST tci:                                    0.102     0.102   0.0% |
  mktci:                                     0.004     0.004   0.0% |
PWDescriptor:                                0.043     0.043   0.0% |
Redistribute:                                0.046     0.046   0.0% |
SCF-cycle:                                1882.492     1.951   0.1% |
 Davidson:                                1654.116   190.391   8.5% |--|
  Apply H:                                 336.173   332.300  14.9% |-----|
   HMM T:                                    3.874     3.874   0.2% |
  Subspace diag:                           377.051     0.472   0.0% |
   calc_h_matrix:                          351.226    14.433   0.6% |
    Apply H:                               336.792   332.654  14.9% |-----|
     HMM T:                                  4.138     4.138   0.2% |
   diagonalize:                              2.896     2.896   0.1% |
   rotate_psi:                              22.457    22.457   1.0% |
  calc. matrices:                          671.867    76.589   3.4% ||
   Apply H:                                595.278   587.355  26.4% |----------|
    HMM T:                                   7.923     7.923   0.4% |
  diagonalize:                              38.535    38.535   1.7% ||
  rotate_psi:                               40.099    40.099   1.8% ||
 Density:                                  124.615     0.001   0.0% |
  Atomic density matrices:                   0.553     0.553   0.0% |
  Mix:                                      12.846    12.846   0.6% |
  Multipole moments:                         0.012     0.012   0.0% |
  Pseudo density:                          111.202   110.918   5.0% |-|
   Symmetrize density:                       0.283     0.283   0.0% |
 Hamiltonian:                               98.233     0.146   0.0% |
  Atomic:                                   19.187     0.063   0.0% |
   XC Correction:                           19.124    19.124   0.9% |
  Calculate atomic Hamiltonians:             0.996     0.996   0.0% |
  Communicate:                               0.000     0.000   0.0% |
  Poisson:                                   0.094     0.094   0.0% |
  XC 3D grid:                               77.810    17.128   0.8% |
   VdW-DF integral:                         60.681     1.841   0.1% |
    Convolution:                            16.330    16.330   0.7% |
    FFT:                                     5.731     5.731   0.3% |
    gather:                                  0.052     0.052   0.0% |
    hmm1:                                    0.214     0.214   0.0% |
    hmm2:                                   11.201    11.201   0.5% |
    iFFT:                                    7.860     7.860   0.4% |
    potential:                              17.451     0.142   0.0% |
     collect:                                0.000     0.000   0.0% |
     p1:                                     2.175     2.175   0.1% |
     p2:                                    15.132    15.132   0.7% |
     sum:                                    0.001     0.001   0.0% |
    splines:                                 0.000     0.000   0.0% |
 Orthonormalize:                             3.578     0.033   0.0% |
  calc_s_matrix:                             0.484     0.484   0.0% |
  inverse-cholesky:                          0.056     0.056   0.0% |
  projections:                               2.287     2.287   0.1% |
  rotate_psi_s:                              0.719     0.719   0.0% |
Set symmetry:                                0.004     0.004   0.0% |
Other:                                     312.759   312.759  14.0% |-----|
-------------------------------------------------------------------
Total:                                              2226.824 100.0%

Memory usage: 1000.37 MiB
Date: Tue Apr  8 16:41:10 2025
