
  ___ ___ ___ _ _ _  
 |   |   |_  | | | | 
 | | | | | . | | | | 
 |__ |  _|___|_____|  25.1.0
 |___|_|             

User:   georgios-vourvachakis@georgios-vourvachakis-82K2
Date:   Tue Apr  8 13:46:19 2025
Arch:   x86_64
Pid:    24499
CWD:    /home/georgios-vourvachakis/Desktop/DFT_codes
Python: 3.12.3
gpaw:   /home/georgios-vourvachakis/Desktop/DFT_codes/.venv/lib/python3.12/site-packages/gpaw
_gpaw:  /home/georgios-vourvachakis/Desktop/DFT_codes/.venv/lib/python3.12/site-packages/
        _gpaw.cpython-312-x86_64-linux-gnu.so
ase:    /home/georgios-vourvachakis/Desktop/DFT_codes/.venv/lib/python3.12/site-packages/ase (version 3.24.0)
numpy:  /home/georgios-vourvachakis/Desktop/DFT_codes/.venv/lib/python3.12/site-packages/numpy (version 2.2.3)
scipy:  /home/georgios-vourvachakis/Desktop/DFT_codes/.venv/lib/python3.12/site-packages/scipy (version 1.15.1)
libxc:  5.2.3
units:  Angstrom and eV
cores: 1
OpenMP: False
OMP_NUM_THREADS: 1

Input parameters:
  kpts: [10 10  2]
  mode: {ecut: 600.0,
         name: pw}
  xc: vdW-DF2

System changes: positions, numbers, cell, pbc, initial_charges, initial_magmoms 

Initialize ...

species:
  W:
    name: Tungsten
    id: c5cdf39eb2772a6eef4e39aea6cd5c6f
    Z: 74.0
    valence: 14
    core: 60
    charge: 0.0
    file: /home/georgios-vourvachakis/Desktop/DFT_codes/gpaw_datasets/gpaw-setups-0.9.20000/W.revPBE.gz
    compensation charges: {type: gauss,
                           rc: 0.40,
                           lmax: 2}
    cutoffs: {filter: 2.36,
              core: 3.02}
    projectors:
      #              energy  rcut
      - 5s(2.00)   -78.785   1.344
      - 6s(2.00)    -5.639   1.344
      - 5p(6.00)   -43.193   1.355
      - 6p(0.00)    -1.336   1.355
      - 5d(4.00)    -4.444   1.228
      -  d          22.768   1.228
  
    # Using partial waves for W as LCAO basis

  Te:
    name: Tellurium
    id: cecded85d882fd4df90837008c85fd5a
    Z: 52.0
    valence: 6
    core: 46
    charge: 0.0
    file: /home/georgios-vourvachakis/Desktop/DFT_codes/gpaw_datasets/gpaw-setups-0.9.20000/Te.revPBE.gz
    compensation charges: {type: gauss,
                           rc: 0.36,
                           lmax: 2}
    cutoffs: {filter: 2.09,
              core: 3.17}
    projectors:
      #              energy  rcut
      - 5s(2.00)   -15.027   1.180
      - 5p(4.00)    -5.913   1.196
      -  s          12.185   1.180
      -  p          21.299   1.196
      -  d           0.000   1.238
  
    # Using partial waves for Te as LCAO basis

Reference energy: -1616751.480151  # eV

Spin-paired calculation

Convergence criteria:
 Maximum [total energy] change in last 3 cyles: 0.0005 eV / valence electron
 Maximum integral of absolute [dens]ity change: 0.0001 electrons / valence electron
 Maximum integral of absolute [eigenst]ate change: 4e-08 eV^2 / valence electron
 Maximum number of scf [iter]ations: 333
 (Square brackets indicate name in SCF output, whereas a 'c' in
 the SCF output indicates the quantity has converged.)

Symmetries present (total): 6

  ( 1  1  0)  ( 1  0  0)  ( 0  1  0)  ( 0 -1  0)  (-1  0  0)  (-1 -1  0)
  ( 0 -1  0)  ( 0  1  0)  (-1 -1  0)  (-1  0  0)  ( 1  1  0)  ( 1  0  0)
  ( 0  0  1)  ( 0  0  1)  ( 0  0  1)  ( 0  0  1)  ( 0  0  1)  ( 0  0  1)
Note: your k-points are not as symmetric as your crystal!

200 k-points: 10 x 10 x 2 Monkhorst-Pack grid
55 k-points in the irreducible part of the Brillouin zone
       k-points in crystal coordinates                weights
   0:     0.05000000   -0.05000000   -0.25000000          2/200
   1:     0.05000000   -0.05000000    0.25000000          2/200
   2:     0.05000000    0.05000000    0.25000000          4/200
   3:     0.15000000   -0.15000000   -0.25000000          2/200
   4:     0.15000000   -0.15000000    0.25000000          2/200
   5:     0.15000000   -0.05000000   -0.25000000          4/200
   6:     0.15000000   -0.05000000    0.25000000          4/200
   7:     0.15000000    0.05000000   -0.25000000          4/200
   8:     0.15000000    0.05000000    0.25000000          4/200
   9:     0.15000000    0.15000000    0.25000000          4/200
          ...
  54:     0.45000000    0.45000000    0.25000000          4/200

Wave functions: Plane wave expansion
  Cutoff energy: 600.000 eV
  Number of coefficients (min, max): 5160, 5212
  Pulay-stress correction: 0.000000 eV/Ang^3 (de/decut=0.000000)
  Using Numpy's FFT
  ScaLapack parameters: grid=1x1, blocksize=None
  Wavefunction extrapolation:
    Improved wavefunction reuse through dual PAW basis 

Occupation numbers: Fermi-Dirac:
  width: 0.1000  # eV
 

Eigensolver
   Davidson(niter=2) 

Densities:
  Coarse grid: 21*21*80 grid
  Fine grid: 42*42*160 grid
  Total Charge: 0.000000 

Density mixing:
  Method: separate
  Backend: pulay
  Linear mixing parameter: 0.05
  old densities: 5
  Damping of long wavelength oscillations: 50 

Hamiltonian:
  XC and Coulomb potentials evaluated on a 42*42*160 grid
  Using the vdW-DF2 Exchange-Correlation functional
  External potential:
    NoExternalPotential
 

XC parameters: vdW-DF2 with 2 nearest neighbor stencil

Memory estimate:
  Process memory now: 972.59 MiB
  Calculator: 234.12 MiB
    Density: 16.57 MiB
      Arrays: 7.00 MiB
      Localized functions: 6.88 MiB
      Mixer: 2.69 MiB
    Hamiltonian: 4.74 MiB
      Arrays: 4.58 MiB
      XC: 0.00 MiB
      Poisson: 0.00 MiB
      vbar: 0.17 MiB
    Wavefunctions: 212.81 MiB
      Arrays psit_nG: 157.47 MiB
      Eigensolver: 3.46 MiB
      Projections: 2.66 MiB
      Projectors: 43.51 MiB
      PW-descriptor: 5.72 MiB

Total number of cores used: 1

Number of atoms: 6
Number of atomic orbitals: 42
Number of bands in calculation: 36
Number of valence electrons: 52
Bands to converge: occupied

... initialized

Initializing position-dependent things.

Density initialized from atomic densities
Creating initial wave functions:
  36 bands from LCAO basis set

                  
                  
                  
                  
                  
       Te         
                  
                  
                  
                  
                  
                  
         Te       
                  
                  
                  
       W          
                  
                  
                  
                  
                  
                  
         W        
                  
         Te       
                  
                  
                  
                  
                  
                  
                  
                  
                  
       Te         
                  
                  
                  
                  

Positions:
   0 W      1.785500    1.030859    3.517500    ( 0.0000,  0.0000,  0.0000)
   1 W      1.785500   -1.030859   10.552500    ( 0.0000,  0.0000,  0.0000)
   2 Te     1.785500    1.030859   12.240900    ( 0.0000,  0.0000,  0.0000)
   3 Te     1.785500   -1.030859   -5.205900    ( 0.0000,  0.0000,  0.0000)
   4 Te     1.785500    1.030859    1.829100    ( 0.0000,  0.0000,  0.0000)
   5 Te     1.785500   -1.030859   19.275900    ( 0.0000,  0.0000,  0.0000)

Unit cell:
           periodic     x           y           z      points  spacing
  1. axis:    yes    1.785500   -3.092577    0.000000    21     0.1473
  2. axis:    yes    1.785500    3.092577    0.000000    21     0.1473
  3. axis:    yes    0.000000    0.000000   14.070000    80     0.1759

  Lengths:   3.571000   3.571000  14.070000
  Angles:   90.000000  90.000000 120.000000

Effective grid spacing dv^(1/3) = 0.1639

     iter     time        total  log10-change:
                         energy   eigst   dens
iter:   1 13:46:46  -706.087300
iter:   2 13:47:02  -703.895466   -0.66  -0.95
iter:   3 13:47:17  -702.343231   -1.22  -1.10
iter:   4 13:47:32  -701.247301   -1.55  -1.23
iter:   5 13:47:47  -700.830581   -1.64  -1.41
iter:   6 13:48:03  -700.822629   -2.46  -1.80
iter:   7 13:48:18  -700.825674c  -3.06  -1.89
iter:   8 13:48:34  -700.841775c  -2.49  -1.95
iter:   9 13:48:50  -700.839283c  -3.14  -2.29
iter:  10 13:49:05  -700.840018c  -3.85  -2.55
iter:  11 13:49:20  -700.838526c  -4.03  -2.59
iter:  12 13:49:35  -700.838731c  -4.51  -2.80
iter:  13 13:49:51  -700.838278c  -4.47  -2.91
iter:  14 13:50:06  -700.838344c  -5.13  -3.15
iter:  15 13:50:21  -700.838274c  -5.97  -3.30
iter:  16 13:50:35  -700.838225c  -5.73  -3.35
iter:  17 13:50:50  -700.838262c  -6.61  -3.77
iter:  18 13:51:06  -700.838262c  -7.34  -3.80
iter:  19 13:51:21  -700.838254c  -7.17  -3.85
iter:  20 13:51:36  -700.838240c  -6.74  -3.97
iter:  21 13:51:50  -700.838240c  -7.48c -4.20c

Converged after 21 iterations.

Dipole moment: (0.000000, -0.000000, -0.192101) |e|*Ang

Energy contributions relative to reference atoms: (reference = -1616751.480151)

Kinetic:       +549.811874
Potential:     -464.864767
External:        +0.000000
XC:            -783.904282
Entropy (-ST):   -0.081181
Local:           -1.840475
SIC:             +0.000000
--------------------------
Free energy:   -700.878831
Extrapolated:  -700.838240

Showing only first 2 kpts
 Kpt  Band  Eigenvalues  Occupancy
  0    24      7.54905    1.99999
  0    25      8.62627    1.53646
  0    26     10.05005    0.00000
  0    27     10.15473    0.00000

  1    24      7.54905    1.99999
  1    25      8.62627    1.53646
  1    26     10.05005    0.00000
  1    27     10.15473    0.00000


Fermi level: 8.74610

No gap
No difference between direct/indirect transitions

Forces in eV/Ang:
  0 W     0.00000    0.00000   78.55079
  1 W     0.00000   -0.00000   78.55079
  2 Te    0.00000    0.00000    2.52170
  3 Te   -0.00000    0.00000  -81.09113
  4 Te    0.00000    0.00000  -81.09113
  5 Te   -0.00000   -0.00000    2.52170

System changes: positions 

Initializing position-dependent things.

Density initialized from wave functions
                  
                  
                  
                  
                  
       Te         
                  
                  
                  
                  
                  
                  
         Te       
                  
                  
                  
       W          
                  
                  
                  
                  
                  
                  
         W        
                  
         Te       
                  
                  
                  
                  
                  
                  
                  
                  
                  
       Te         
                  
                  
                  
                  

Positions:
   0 W      1.785500    1.030859    3.711235    ( 0.0000,  0.0000,  0.0000)
   1 W      1.785500   -1.030859   10.746235    ( 0.0000,  0.0000,  0.0000)
   2 Te     1.785500    1.030859   12.247119    ( 0.0000,  0.0000,  0.0000)
   3 Te     1.785500   -1.030859   -5.405900    ( 0.0000,  0.0000,  0.0000)
   4 Te     1.785500    1.030859    1.629100    ( 0.0000,  0.0000,  0.0000)
   5 Te     1.785500   -1.030859   19.282119    ( 0.0000,  0.0000,  0.0000)

Unit cell:
           periodic     x           y           z      points  spacing
  1. axis:    yes    1.785500   -3.092577    0.000000    21     0.1473
  2. axis:    yes    1.785500    3.092577    0.000000    21     0.1473
  3. axis:    yes    0.000000    0.000000   14.070000    80     0.1759

  Lengths:   3.571000   3.571000  14.070000
  Angles:   90.000000  90.000000 120.000000

Effective grid spacing dv^(1/3) = 0.1639

     iter     time        total  log10-change:
                         energy   eigst   dens
iter:   1 13:52:07  -754.169894   +0.49
iter:   2 13:52:21  -745.786795   -0.86  -0.70
iter:   3 13:52:37  -734.521945   -0.16  -0.81
iter:   4 13:52:51  -734.435106   -1.91  -1.42
iter:   5 13:53:06  -734.297320   -2.32  -1.51
iter:   6 13:53:21  -733.848728   -1.56  -1.60
iter:   7 13:53:35  -733.833566   -3.17  -1.95
iter:   8 13:53:50  -733.813337   -3.13  -2.00
iter:   9 13:54:05  -733.784998   -2.80  -2.11
iter:  10 13:54:20  -733.765056   -3.21  -2.13
iter:  11 13:54:35  -733.762769c  -3.60  -2.47
iter:  12 13:54:50  -733.762698c  -4.51  -2.69
iter:  13 13:55:05  -733.762136c  -3.88  -2.73
iter:  14 13:55:19  -733.761635c  -4.53  -2.92
iter:  15 13:55:34  -733.761660c  -5.42  -3.33
iter:  16 13:55:49  -733.761660c  -6.54  -3.37
iter:  17 13:56:04  -733.761577c  -5.55  -3.38
iter:  18 13:56:18  -733.761560c  -5.74  -3.66
iter:  19 13:56:31  -733.761506c  -6.54  -3.88
iter:  20 13:56:45  -733.761522c  -6.21  -4.03c
iter:  21 13:56:58  -733.761521c  -7.04  -4.05c
iter:  22 13:57:12  -733.761518c  -7.81c -4.40c

Converged after 22 iterations.

Dipole moment: (0.000000, -0.000005, -0.571055) |e|*Ang

Energy contributions relative to reference atoms: (reference = -1616751.480151)

Kinetic:       +246.733078
Potential:     -216.700710
External:        +0.000000
XC:            -763.068934
Entropy (-ST):   -0.126394
Local:           -0.661756
SIC:             +0.000000
--------------------------
Free energy:   -733.824715
Extrapolated:  -733.761518

Showing only first 2 kpts
 Kpt  Band  Eigenvalues  Occupancy
  0    24      8.38213    1.82707
  0    25      9.36055    0.00119
  0    26     10.11334    0.00000
  0    27     10.19715    0.00000

  1    24      8.38213    1.82707
  1    25      9.36055    0.00119
  1    26     10.11334    0.00000
  1    27     10.19715    0.00000


Fermi level: 8.61789

No gap
No difference between direct/indirect transitions

Forces in eV/Ang:
  0 W     0.00000    0.00000   14.02160
  1 W    -0.00000   -0.00000   14.02200
  2 Te    0.00000    0.00000    3.72296
  3 Te    0.00000    0.00000  -17.73967
  4 Te   -0.00000    0.00000  -17.73934
  5 Te    0.00000    0.00000    3.72258

System changes: positions 

Initializing position-dependent things.

Density initialized from wave functions
                  
                  
                  
                  
                  
       Te         
                  
                  
                  
                  
                  
                  
         Te       
                  
                  
                  
       W          
                  
                  
                  
                  
                  
                  
         W        
                  
         Te       
                  
                  
                  
                  
                  
                  
                  
                  
                  
       Te         
                  
                  
                  
                  

Positions:
   0 W      1.785500    1.030859    3.731755    ( 0.0000,  0.0000,  0.0000)
   1 W      1.785500   -1.030859   10.766755    ( 0.0000,  0.0000,  0.0000)
   2 Te     1.785500    1.030859   12.306211    ( 0.0000,  0.0000,  0.0000)
   3 Te     1.785500   -1.030859   -5.485367    ( 0.0000,  0.0000,  0.0000)
   4 Te     1.785500    1.030859    1.549633    ( 0.0000,  0.0000,  0.0000)
   5 Te     1.785500   -1.030859   19.341211    ( 0.0000,  0.0000,  0.0000)

Unit cell:
           periodic     x           y           z      points  spacing
  1. axis:    yes    1.785500   -3.092577    0.000000    21     0.1473
  2. axis:    yes    1.785500    3.092577    0.000000    21     0.1473
  3. axis:    yes    0.000000    0.000000   14.070000    80     0.1759

  Lengths:   3.571000   3.571000  14.070000
  Angles:   90.000000  90.000000 120.000000

Effective grid spacing dv^(1/3) = 0.1639

     iter     time        total  log10-change:
                         energy   eigst   dens
iter:   1 13:57:27  -737.086863   -1.23
iter:   2 13:57:40  -736.975825   -2.54  -1.61
iter:   3 13:57:53  -736.850229   -2.32  -1.73
iter:   4 13:58:06  -736.845002   -3.60  -2.15
iter:   5 13:58:19  -736.836911c  -3.98  -2.20
iter:   6 13:58:34  -736.831186c  -3.75  -2.30
iter:   7 13:58:47  -736.824435c  -3.66  -2.43
iter:   8 13:59:01  -736.824014c  -4.84  -2.80
iter:   9 13:59:14  -736.823710c  -4.33  -2.85
iter:  10 13:59:28  -736.823098c  -4.83  -3.04
iter:  11 13:59:41  -736.823154c  -6.16  -3.39
iter:  12 13:59:54  -736.823155c  -6.84  -3.43
iter:  13 14:00:07  -736.823169c  -6.05  -3.46
iter:  14 14:00:20  -736.823110c  -6.34  -3.63
iter:  15 14:00:33  -736.823082c  -7.00  -3.74
iter:  16 14:00:47  -736.823065c  -7.09  -3.89
iter:  17 14:01:01  -736.823041c  -7.00  -3.99
iter:  18 14:01:15  -736.823046c  -7.81c -4.39c

Converged after 18 iterations.

Dipole moment: (0.000000, -0.000005, -0.721252) |e|*Ang

Energy contributions relative to reference atoms: (reference = -1616751.480151)

Kinetic:       +193.456089
Potential:     -171.252600
External:        +0.000000
XC:            -758.418131
Entropy (-ST):   -0.136845
Local:           -0.539981
SIC:             +0.000000
--------------------------
Free energy:   -736.891468
Extrapolated:  -736.823046

Showing only first 2 kpts
 Kpt  Band  Eigenvalues  Occupancy
  0    24      8.37041    1.71938
  0    25      9.35697    0.00064
  0    26     10.04057    0.00000
  0    27     10.12597    0.00000

  1    24      8.37041    1.71938
  1    25      9.35697    0.00064
  1    26     10.04057    0.00000
  1    27     10.12597    0.00000


Fermi level: 8.55168

No gap
No difference between direct/indirect transitions

Forces in eV/Ang:
  0 W     0.00000    0.00000    8.06901
  1 W     0.00000   -0.00000    8.06934
  2 Te    0.00000    0.00000    2.75405
  3 Te   -0.00000    0.00000  -10.82402
  4 Te    0.00000    0.00000  -10.82381
  5 Te    0.00000   -0.00000    2.75379

System changes: positions 

Initializing position-dependent things.

Density initialized from wave functions
                  
                  
                  
                  
                  
       Te         
                  
                  
                  
                  
                  
                  
                  
         Te       
                  
                  
       W          
                  
                  
                  
                  
                  
                  
         W        
                  
                  
         Te       
                  
                  
                  
                  
                  
                  
                  
                  
                  
       Te         
                  
                  
                  
                  

Positions:
   0 W      1.785500    1.030859    3.754401    ( 0.0000,  0.0000,  0.0000)
   1 W      1.785500   -1.030859   10.789401    ( 0.0000,  0.0000,  0.0000)
   2 Te     1.785500    1.030859   12.420060    ( 0.0000,  0.0000,  0.0000)
   3 Te     1.785500   -1.030859   -5.621777    ( 0.0000,  0.0000,  0.0000)
   4 Te     1.785500    1.030859    1.413223    ( 0.0000,  0.0000,  0.0000)
   5 Te     1.785500   -1.030859   19.455060    ( 0.0000,  0.0000,  0.0000)

Unit cell:
           periodic     x           y           z      points  spacing
  1. axis:    yes    1.785500   -3.092577    0.000000    21     0.1473
  2. axis:    yes    1.785500    3.092577    0.000000    21     0.1473
  3. axis:    yes    0.000000    0.000000   14.070000    80     0.1759

  Lengths:   3.571000   3.571000  14.070000
  Angles:   90.000000  90.000000 120.000000

Effective grid spacing dv^(1/3) = 0.1639

     iter     time        total  log10-change:
                         energy   eigst   dens
iter:   1 14:01:30  -739.719848   -0.91
iter:   2 14:01:44  -739.561723   -2.32  -1.51
iter:   3 14:01:58  -739.353241   -2.13  -1.62
iter:   4 14:02:11  -739.346625   -3.45  -1.99
iter:   5 14:02:25  -739.331585c  -3.93  -2.02
iter:   6 14:02:38  -739.316668   -3.34  -2.13
iter:   7 14:02:51  -739.307115c  -3.42  -2.31
iter:   8 14:03:04  -739.306445c  -4.58  -2.61
iter:   9 14:03:17  -739.304982c  -4.06  -2.65
iter:  10 14:03:30  -739.304131c  -4.70  -2.94
iter:  11 14:03:43  -739.304165c  -5.94  -3.20
iter:  12 14:03:56  -739.304194c  -5.90  -3.24
iter:  13 14:04:11  -739.304124c  -5.45  -3.32
iter:  14 14:04:25  -739.304019c  -6.12  -3.51
iter:  15 14:04:37  -739.304029c  -7.19  -3.87
iter:  16 14:04:51  -739.304034c  -7.10  -3.95
iter:  17 14:05:04  -739.304024c  -7.53c -4.02c

Converged after 17 iterations.

Dipole moment: (0.000000, -0.000009, -1.082742) |e|*Ang

Energy contributions relative to reference atoms: (reference = -1616751.480151)

Kinetic:       +127.389890
Potential:     -113.938904
External:        +0.000000
XC:            -752.155884
Entropy (-ST):   -0.153550
Local:           -0.522352
SIC:             +0.000000
--------------------------
Free energy:   -739.380799
Extrapolated:  -739.304024

Showing only first 2 kpts
 Kpt  Band  Eigenvalues  Occupancy
  0    24      8.31271    1.66944
  0    25      9.30766    0.00048
  0    26      9.87576    0.00000
  0    27      9.96388    0.00000

  1    24      8.31272    1.66944
  1    25      9.30766    0.00048
  1    26      9.87576    0.00000
  1    27      9.96388    0.00000


Fermi level: 8.47466

No gap
No difference between direct/indirect transitions

Forces in eV/Ang:
  0 W    -0.00000    0.00000    2.91637
  1 W     0.00000    0.00000    2.91730
  2 Te   -0.00000    0.00000    0.61776
  3 Te    0.00000    0.00000   -3.52665
  4 Te    0.00000    0.00000   -3.52601
  5 Te   -0.00000   -0.00000    0.61756

System changes: positions 

Initializing position-dependent things.

Density initialized from wave functions
                  
                  
                  
                  
                  
       Te         
                  
                  
                  
                  
                  
                  
         Te       
                  
                  
                  
       W          
                  
                  
                  
                  
                  
                  
         W        
                  
                  
         Te       
                  
                  
                  
                  
                  
                  
                  
                  
                  
       Te         
                  
                  
                  
                  

Positions:
   0 W      1.785500    1.030859    3.768372    ( 0.0000,  0.0000,  0.0000)
   1 W      1.785500   -1.030859   10.803372    ( 0.0000,  0.0000,  0.0000)
   2 Te     1.785500    1.030859   12.467235    ( 0.0000,  0.0000,  0.0000)
   3 Te     1.785500   -1.030859   -5.682708    ( 0.0000,  0.0000,  0.0000)
   4 Te     1.785500    1.030859    1.352292    ( 0.0000,  0.0000,  0.0000)
   5 Te     1.785500   -1.030859   19.502235    ( 0.0000,  0.0000,  0.0000)

Unit cell:
           periodic     x           y           z      points  spacing
  1. axis:    yes    1.785500   -3.092577    0.000000    21     0.1473
  2. axis:    yes    1.785500    3.092577    0.000000    21     0.1473
  3. axis:    yes    0.000000    0.000000   14.070000    80     0.1759

  Lengths:   3.571000   3.571000  14.070000
  Angles:   90.000000  90.000000 120.000000

Effective grid spacing dv^(1/3) = 0.1639

     iter     time        total  log10-change:
                         energy   eigst   dens
iter:   1 14:05:18  -739.747615   -1.65
iter:   2 14:05:31  -739.709565   -3.10  -1.81
iter:   3 14:05:44  -739.669682   -2.87  -1.93
iter:   4 14:05:57  -739.659873   -3.75  -2.19
iter:   5 14:06:10  -739.657967c  -4.78  -2.42
iter:   6 14:06:23  -739.654874c  -3.85  -2.48
iter:   7 14:06:36  -739.653132c  -4.23  -2.66
iter:   8 14:06:49  -739.653023c  -5.31  -2.96
iter:   9 14:07:02  -739.652892c  -4.94  -3.00
iter:  10 14:07:16  -739.652810c  -5.65  -3.26
iter:  11 14:07:31  -739.652772c  -6.24  -3.36
iter:  12 14:07:47  -739.652760c  -6.99  -3.55
iter:  13 14:08:00  -739.652738c  -6.34  -3.58
iter:  14 14:08:14  -739.652735c  -7.00  -3.70
iter:  15 14:08:27  -739.652726c  -6.88  -3.80
iter:  16 14:08:40  -739.652694c  -6.78  -3.92
iter:  17 14:08:54  -739.652693c  -7.78c -4.25c

Converged after 17 iterations.

Dipole moment: (0.000000, -0.000020, -1.325949) |e|*Ang

Energy contributions relative to reference atoms: (reference = -1616751.480151)

Kinetic:       +106.667736
Potential:      -95.625781
External:        +0.000000
XC:            -750.071673
Entropy (-ST):   -0.170569
Local:           -0.537691
SIC:             +0.000000
--------------------------
Free energy:   -739.737978
Extrapolated:  -739.652693

Showing only first 2 kpts
 Kpt  Band  Eigenvalues  Occupancy
  0    24      8.32404    1.59163
  0    25      9.31939    0.00037
  0    26      9.78602    0.00000
  0    27      9.87219    0.00000

  1    24      8.32405    1.59162
  1    25      9.31938    0.00037
  1    26      9.78603    0.00000
  1    27      9.87219    0.00000


Fermi level: 8.46008

No gap
No difference between direct/indirect transitions

Forces in eV/Ang:
  0 W    -0.00000    0.00000    1.56075
  1 W     0.00000   -0.00000    1.56337
  2 Te    0.00000    0.00000   -0.32645
  3 Te    0.00000    0.00000   -1.22594
  4 Te    0.00000    0.00000   -1.22423
  5 Te   -0.00000    0.00000   -0.32677

System changes: positions 

Initializing position-dependent things.

Density initialized from wave functions
                  
                  
                  
                  
                  
       Te         
                  
                  
                  
                  
                  
                  
         Te       
                  
                  
                  
       W          
                  
                  
                  
                  
                  
                  
         W        
                  
                  
         Te       
                  
                  
                  
                  
                  
                  
                  
                  
                  
       Te         
                  
                  
                  
                  

Positions:
   0 W      1.785500    1.030859    3.781200    ( 0.0000,  0.0000,  0.0000)
   1 W      1.785500   -1.030859   10.816200    ( 0.0000,  0.0000,  0.0000)
   2 Te     1.785500    1.030859   12.477942    ( 0.0000,  0.0000,  0.0000)
   3 Te     1.785500   -1.030859   -5.705986    ( 0.0000,  0.0000,  0.0000)
   4 Te     1.785500    1.030859    1.329014    ( 0.0000,  0.0000,  0.0000)
   5 Te     1.785500   -1.030859   19.512942    ( 0.0000,  0.0000,  0.0000)

Unit cell:
           periodic     x           y           z      points  spacing
  1. axis:    yes    1.785500   -3.092577    0.000000    21     0.1473
  2. axis:    yes    1.785500    3.092577    0.000000    21     0.1473
  3. axis:    yes    0.000000    0.000000   14.070000    80     0.1759

  Lengths:   3.571000   3.571000  14.070000
  Angles:   90.000000  90.000000 120.000000

Effective grid spacing dv^(1/3) = 0.1639

     iter     time        total  log10-change:
                         energy   eigst   dens
iter:   1 14:09:08  -739.756256   -2.26
iter:   2 14:09:26  -739.734950   -3.63  -1.95
iter:   3 14:09:40  -739.726285   -3.64  -2.07
iter:   4 14:09:54  -739.709189c  -3.50  -2.13
iter:   5 14:10:07  -739.708720c  -4.48  -2.72
iter:   6 14:10:21  -739.708270c  -4.86  -2.85
iter:   7 14:10:33  -739.707655c  -4.97  -2.94
iter:   8 14:10:47  -739.707594c  -5.75  -3.31
iter:   9 14:11:00  -739.707593c  -6.44  -3.36
iter:  10 14:11:13  -739.707590c  -5.91  -3.44
iter:  11 14:11:26  -739.707581c  -6.56  -3.73
iter:  12 14:11:39  -739.707564c  -6.96  -3.91
iter:  13 14:11:53  -739.707566c  -7.64c -3.99
iter:  14 14:12:05  -739.707562c  -7.93c -4.06c

Converged after 14 iterations.

Dipole moment: (0.000000, -0.000000, -1.461549) |e|*Ang

Energy contributions relative to reference atoms: (reference = -1616751.480151)

Kinetic:       +100.737740
Potential:      -90.337471
External:        +0.000000
XC:            -749.497409
Entropy (-ST):   -0.181991
Local:           -0.519427
SIC:             +0.000000
--------------------------
Free energy:   -739.798558
Extrapolated:  -739.707562

Showing only first 2 kpts
 Kpt  Band  Eigenvalues  Occupancy
  0    24      8.35870    1.45553
  0    25      9.35419    0.00025
  0    26      9.76068    0.00000
  0    27      9.84481    0.00000

  1    24      8.35870    1.45553
  1    25      9.35419    0.00025
  1    26      9.76068    0.00000
  1    27      9.84481    0.00000


Fermi level: 8.45703

No gap
No difference between direct/indirect transitions

Forces in eV/Ang:
  0 W     0.00000    0.00000    0.95320
  1 W     0.00000    0.00000    0.95377
  2 Te    0.00000    0.00000   -0.51192
  3 Te    0.00000   -0.00000   -0.44668
  4 Te    0.00000    0.00000   -0.44633
  5 Te    0.00000    0.00000   -0.51183

System changes: positions 

Initializing position-dependent things.

Density initialized from wave functions
                  
                  
                  
                  
                  
       Te         
                  
                  
                  
                  
                  
                  
         Te       
                  
                  
                  
       W          
                  
                  
                  
                  
                  
                  
         W        
                  
                  
         Te       
                  
                  
                  
                  
                  
                  
                  
                  
                  
       Te         
                  
                  
                  
                  

Positions:
   0 W      1.785500    1.030859    3.795328    ( 0.0000,  0.0000,  0.0000)
   1 W      1.785500   -1.030859   10.830328    ( 0.0000,  0.0000,  0.0000)
   2 Te     1.785500    1.030859   12.475386    ( 0.0000,  0.0000,  0.0000)
   3 Te     1.785500   -1.030859   -5.717572    ( 0.0000,  0.0000,  0.0000)
   4 Te     1.785500    1.030859    1.317428    ( 0.0000,  0.0000,  0.0000)
   5 Te     1.785500   -1.030859   19.510386    ( 0.0000,  0.0000,  0.0000)

Unit cell:
           periodic     x           y           z      points  spacing
  1. axis:    yes    1.785500   -3.092577    0.000000    21     0.1473
  2. axis:    yes    1.785500    3.092577    0.000000    21     0.1473
  3. axis:    yes    0.000000    0.000000   14.070000    80     0.1759

  Lengths:   3.571000   3.571000  14.070000
  Angles:   90.000000  90.000000 120.000000

Effective grid spacing dv^(1/3) = 0.1639

     iter     time        total  log10-change:
                         energy   eigst   dens
iter:   1 14:12:20  -739.780221   -2.35
iter:   2 14:12:33  -739.755471   -3.74  -1.95
iter:   3 14:12:46  -739.735770   -3.32  -2.10
iter:   4 14:13:02  -739.731593c  -4.20  -2.38
iter:   5 14:13:15  -739.730576c  -4.34  -2.67
iter:   6 14:13:28  -739.730235c  -4.97  -2.95
iter:   7 14:13:42  -739.729878c  -5.38  -3.03
iter:   8 14:13:55  -739.729826c  -5.77  -3.42
iter:   9 14:14:08  -739.729821c  -6.61  -3.54
iter:  10 14:14:22  -739.729814c  -6.76  -3.59
iter:  11 14:14:35  -739.729787c  -6.40  -3.65
iter:  12 14:14:48  -739.729776c  -6.85  -4.03c
iter:  13 14:15:03  -739.729773c  -7.79c -4.17c

Converged after 13 iterations.

Dipole moment: (0.000000, -0.000008, -1.561419) |e|*Ang

Energy contributions relative to reference atoms: (reference = -1616751.480151)

Kinetic:        +98.623889
Potential:      -88.374248
External:        +0.000000
XC:            -749.356728
Entropy (-ST):   -0.190843
Local:           -0.527264
SIC:             +0.000000
--------------------------
Free energy:   -739.825194
Extrapolated:  -739.729773

Showing only first 2 kpts
 Kpt  Band  Eigenvalues  Occupancy
  0    24      8.40423    1.24369
  0    25      9.40104    0.00015
  0    26      9.76188    0.00000
  0    27      9.84447    0.00000

  1    24      8.40423    1.24369
  1    25      9.40104    0.00015
  1    26      9.76188    0.00000
  1    27      9.84447    0.00000


Fermi level: 8.45397

No gap
No difference between direct/indirect transitions

Forces in eV/Ang:
  0 W    -0.00000    0.00000    0.44674
  1 W    -0.00000   -0.00000    0.44703
  2 Te    0.00000    0.00000   -0.43134
  3 Te   -0.00000   -0.00000   -0.01397
  4 Te    0.00000    0.00000   -0.01418
  5 Te   -0.00000    0.00000   -0.43163

System changes: positions 

Initializing position-dependent things.

Density initialized from wave functions
                  
                  
                  
                  
                  
       Te         
                  
                  
                  
                  
                  
                  
         Te       
                  
                  
                  
       W          
                  
                  
                  
                  
                  
                  
         W        
                  
                  
         Te       
                  
                  
                  
                  
                  
                  
                  
                  
                  
       Te         
                  
                  
                  
                  

Positions:
   0 W      1.785500    1.030859    3.807234    ( 0.0000,  0.0000,  0.0000)
   1 W      1.785500   -1.030859   10.842234    ( 0.0000,  0.0000,  0.0000)
   2 Te     1.785500    1.030859   12.465243    ( 0.0000,  0.0000,  0.0000)
   3 Te     1.785500   -1.030859   -5.719267    ( 0.0000,  0.0000,  0.0000)
   4 Te     1.785500    1.030859    1.315733    ( 0.0000,  0.0000,  0.0000)
   5 Te     1.785500   -1.030859   19.500243    ( 0.0000,  0.0000,  0.0000)

Unit cell:
           periodic     x           y           z      points  spacing
  1. axis:    yes    1.785500   -3.092577    0.000000    21     0.1473
  2. axis:    yes    1.785500    3.092577    0.000000    21     0.1473
  3. axis:    yes    0.000000    0.000000   14.070000    80     0.1759

  Lengths:   3.571000   3.571000  14.070000
  Angles:   90.000000  90.000000 120.000000

Effective grid spacing dv^(1/3) = 0.1639

     iter     time        total  log10-change:
                         energy   eigst   dens
iter:   1 14:15:19  -739.774879   -2.50
iter:   2 14:15:32  -739.756633   -3.90  -2.03
iter:   3 14:15:45  -739.741240   -3.52  -2.20
iter:   4 14:16:00  -739.739872c  -3.99  -2.65
iter:   5 14:16:15  -739.739598c  -4.91  -3.03
iter:   6 14:16:29  -739.739488c  -5.61  -3.11
iter:   7 14:16:43  -739.739382c  -5.38  -3.13
iter:   8 14:16:56  -739.739358c  -5.94  -3.49
iter:   9 14:17:09  -739.739345c  -6.85  -3.61
iter:  10 14:17:23  -739.739259c  -5.89  -3.67
iter:  11 14:17:36  -739.739261c  -7.01  -4.12c
iter:  12 14:17:49  -739.739268c  -7.26  -4.17c
iter:  13 14:18:03  -739.739272c  -7.55c -4.22c

Converged after 13 iterations.

Dipole moment: (0.000000, 0.000004, -1.609120) |e|*Ang

Energy contributions relative to reference atoms: (reference = -1616751.480151)

Kinetic:        +99.521969
Potential:      -89.114214
External:        +0.000000
XC:            -749.522701
Entropy (-ST):   -0.195613
Local:           -0.526520
SIC:             +0.000000
--------------------------
Free energy:   -739.837079
Extrapolated:  -739.739272

Showing only first 2 kpts
 Kpt  Band  Eigenvalues  Occupancy
  0    24      8.44950    1.00670
  0    25      9.44781    0.00009
  0    26      9.78019    0.00000
  0    27      9.86202    0.00000

  1    24      8.44950    1.00670
  1    25      9.44781    0.00009
  1    26      9.78019    0.00000
  1    27      9.86202    0.00000


Fermi level: 8.45084

No gap
No difference between direct/indirect transitions

Forces in eV/Ang:
  0 W     0.00000    0.00000    0.06200
  1 W     0.00000   -0.00000    0.06117
  2 Te   -0.00000    0.00000   -0.15958
  3 Te   -0.00000   -0.00000    0.11694
  4 Te    0.00000    0.00000    0.11655
  5 Te   -0.00000    0.00000   -0.15946

System changes: positions 

Initializing position-dependent things.

Density initialized from wave functions
                  
                  
                  
                  
                  
       Te         
                  
                  
                  
                  
                  
                  
         Te       
                  
                  
                  
       W          
                  
                  
                  
                  
                  
                  
         W        
                  
                  
         Te       
                  
                  
                  
                  
                  
                  
                  
                  
                  
       Te         
                  
                  
                  
                  

Positions:
   0 W      1.785500    1.030859    3.809999    ( 0.0000,  0.0000,  0.0000)
   1 W      1.785500   -1.030859   10.844999    ( 0.0000,  0.0000,  0.0000)
   2 Te     1.785500    1.030859   12.459771    ( 0.0000,  0.0000,  0.0000)
   3 Te     1.785500   -1.030859   -5.716208    ( 0.0000,  0.0000,  0.0000)
   4 Te     1.785500    1.030859    1.318792    ( 0.0000,  0.0000,  0.0000)
   5 Te     1.785500   -1.030859   19.494771    ( 0.0000,  0.0000,  0.0000)

Unit cell:
           periodic     x           y           z      points  spacing
  1. axis:    yes    1.785500   -3.092577    0.000000    21     0.1473
  2. axis:    yes    1.785500    3.092577    0.000000    21     0.1473
  3. axis:    yes    0.000000    0.000000   14.070000    80     0.1759

  Lengths:   3.571000   3.571000  14.070000
  Angles:   90.000000  90.000000 120.000000

Effective grid spacing dv^(1/3) = 0.1639

     iter     time        total  log10-change:
                         energy   eigst   dens
iter:   1 14:18:17  -739.743588   -3.54
iter:   2 14:18:31  -739.742354   -4.91  -2.62
iter:   3 14:18:45  -739.741974c  -5.09  -2.76
iter:   4 14:18:58  -739.741169c  -5.16  -2.81
iter:   5 14:19:11  -739.741102c  -5.17  -3.24
iter:   6 14:19:25  -739.741066c  -5.85  -3.52
iter:   7 14:19:39  -739.741089c  -6.04  -3.60
iter:   8 14:19:52  -739.741092c  -7.12  -4.02c
iter:   9 14:20:07  -739.741076c  -7.40c -4.06c

Converged after 9 iterations.

Dipole moment: (0.000000, -0.000016, -1.600647) |e|*Ang

Energy contributions relative to reference atoms: (reference = -1616751.480151)

Kinetic:       +100.648821
Potential:      -90.085530
External:        +0.000000
XC:            -749.663328
Entropy (-ST):   -0.195729
Local:           -0.543175
SIC:             +0.000000
--------------------------
Free energy:   -739.838941
Extrapolated:  -739.741076

Showing only first 2 kpts
 Kpt  Band  Eigenvalues  Occupancy
  0    24      8.46272    0.93280
  0    25      9.46148    0.00008
  0    26      9.79088    0.00000
  0    27      9.87272    0.00000

  1    24      8.46272    0.93280
  1    25      9.46148    0.00008
  1    26      9.79089    0.00000
  1    27      9.87272    0.00000


Fermi level: 8.44926

No gap
No difference between direct/indirect transitions

Forces in eV/Ang:
  0 W    -0.00000    0.00000   -0.01735
  1 W     0.00000    0.00000   -0.01509
  2 Te    0.00000   -0.00000   -0.04968
  3 Te    0.00000   -0.00000    0.05380
  4 Te   -0.00000    0.00000    0.05466
  5 Te   -0.00000   -0.00000   -0.05007

System changes: positions 

Initializing position-dependent things.

Density initialized from wave functions
                  
                  
                  
                  
                  
       Te         
                  
                  
                  
                  
                  
                  
         Te       
                  
                  
                  
       W          
                  
                  
                  
                  
                  
                  
         W        
                  
                  
         Te       
                  
                  
                  
                  
                  
                  
                  
                  
                  
       Te         
                  
                  
                  
                  

Positions:
   0 W      1.785500    1.030859    3.810111    ( 0.0000,  0.0000,  0.0000)
   1 W      1.785500   -1.030859   10.845111    ( 0.0000,  0.0000,  0.0000)
   2 Te     1.785500    1.030859   12.457417    ( 0.0000,  0.0000,  0.0000)
   3 Te     1.785500   -1.030859   -5.714175    ( 0.0000,  0.0000,  0.0000)
   4 Te     1.785500    1.030859    1.320825    ( 0.0000,  0.0000,  0.0000)
   5 Te     1.785500   -1.030859   19.492417    ( 0.0000,  0.0000,  0.0000)

Unit cell:
           periodic     x           y           z      points  spacing
  1. axis:    yes    1.785500   -3.092577    0.000000    21     0.1473
  2. axis:    yes    1.785500    3.092577    0.000000    21     0.1473
  3. axis:    yes    0.000000    0.000000   14.070000    80     0.1759

  Lengths:   3.571000   3.571000  14.070000
  Angles:   90.000000  90.000000 120.000000

Effective grid spacing dv^(1/3) = 0.1639

     iter     time        total  log10-change:
                         energy   eigst   dens
iter:   1 14:20:24  -739.742027   -4.51
iter:   2 14:20:36  -739.742417   -5.00  -2.93
iter:   3 14:20:49  -739.741527c  -5.68  -2.80
iter:   4 14:21:02  -739.741503c  -6.81  -3.60
iter:   5 14:21:16  -739.741510c  -6.74  -3.68
iter:   6 14:21:31  -739.741534c  -6.41  -3.87
iter:   7 14:21:45  -739.741533c  -7.82c -4.24c

Converged after 7 iterations.

Dipole moment: (0.000000, -0.000003, -1.591934) |e|*Ang

Energy contributions relative to reference atoms: (reference = -1616751.480151)

Kinetic:       +101.297663
Potential:      -90.667878
External:        +0.000000
XC:            -749.734952
Entropy (-ST):   -0.195247
Local:           -0.538743
SIC:             +0.000000
--------------------------
Free energy:   -739.839157
Extrapolated:  -739.741533

Showing only first 2 kpts
 Kpt  Band  Eigenvalues  Occupancy
  0    24      8.46556    0.91648
  0    25      9.46427    0.00008
  0    26      9.79558    0.00000
  0    27      9.87750    0.00000

  1    24      8.46556    0.91648
  1    25      9.46427    0.00008
  1    26      9.79558    0.00000
  1    27      9.87750    0.00000


Fermi level: 8.44882

No gap
No difference between direct/indirect transitions

Forces in eV/Ang:
  0 W     0.00000    0.00000   -0.01034
  1 W    -0.00000   -0.00000   -0.01054
  2 Te    0.00000    0.00000    0.00630
  3 Te   -0.00000    0.00000    0.00604
  4 Te    0.00000    0.00000    0.00574
  5 Te   -0.00000   -0.00000    0.00623

Timing:                                      incl.     excl.
-------------------------------------------------------------------
Density initialized from wave functions:     7.480     7.461   0.3% |
 Symmetrize density:                         0.019     0.019   0.0% |
Forces:                                      7.147     7.147   0.3% |
Hamiltonian:                                 9.923     0.010   0.0% |
 Atomic:                                     1.452     0.005   0.0% |
  XC Correction:                             1.446     1.446   0.1% |
 Calculate atomic Hamiltonians:              0.085     0.085   0.0% |
 Communicate:                                0.000     0.000   0.0% |
 Initialize Hamiltonian:                     0.000     0.000   0.0% |
 Poisson:                                    0.007     0.007   0.0% |
 XC 3D grid:                                 8.369     1.319   0.1% |
  VdW-DF integral:                           7.050     0.398   0.0% |
   Convolution:                              1.206     1.206   0.0% |
   FFT:                                      0.527     0.527   0.0% |
   gather:                                   0.004     0.004   0.0% |
   hmm1:                                     0.024     0.024   0.0% |
   hmm2:                                     1.083     1.083   0.0% |
   iFFT:                                     0.630     0.630   0.0% |
   potential:                                1.545     0.011   0.0% |
    collect:                                 0.000     0.000   0.0% |
    p1:                                      0.159     0.159   0.0% |
    p2:                                      1.374     1.374   0.1% |
    sum:                                     0.000     0.000   0.0% |
   splines:                                  1.632     1.632   0.1% |
LCAO initialization:                        11.605     0.054   0.0% |
 LCAO eigensolver:                           4.192     0.003   0.0% |
  Calculate projections:                     0.006     0.006   0.0% |
  DenseAtomicCorrection:                     0.017     0.017   0.0% |
  Distribute overlap matrix:                 0.002     0.002   0.0% |
  Orbital Layouts:                           2.251     2.251   0.1% |
  Potential matrix:                          0.211     0.211   0.0% |
  Sum over cells:                            1.703     1.703   0.1% |
 LCAO to grid:                               7.037     7.037   0.3% |
 Set positions (LCAO WFS):                   0.321     0.047   0.0% |
  Basic WFS set positions:                   0.000     0.000   0.0% |
  Basis functions set positions:             0.000     0.000   0.0% |
  P tci:                                     0.165     0.165   0.0% |
  ST tci:                                    0.104     0.104   0.0% |
  mktci:                                     0.004     0.004   0.0% |
PWDescriptor:                                0.043     0.043   0.0% |
Redistribute:                                0.055     0.055   0.0% |
SCF-cycle:                                2087.020     2.038   0.1% |
 Davidson:                                1838.098   205.951   8.5% |--|
  Apply H:                                 358.745   354.298  14.6% |-----|
   HMM T:                                    4.448     4.448   0.2% |
  Subspace diag:                           404.220     0.579   0.0% |
   calc_h_matrix:                          375.818    16.003   0.7% |
    Apply H:                               359.815   355.078  14.6% |-----|
     HMM T:                                  4.737     4.737   0.2% |
   diagonalize:                              3.137     3.137   0.1% |
   rotate_psi:                              24.686    24.686   1.0% |
  calc. matrices:                          713.928    84.437   3.5% ||
   Apply H:                                629.491   620.174  25.5% |---------|
    HMM T:                                   9.317     9.317   0.4% |
  diagonalize:                             110.663   110.663   4.6% |-|
  rotate_psi:                               44.591    44.591   1.8% ||
 Density:                                  132.186     0.002   0.0% |
  Atomic density matrices:                   0.588     0.588   0.0% |
  Mix:                                      13.907    13.907   0.6% |
  Multipole moments:                         0.012     0.012   0.0% |
  Pseudo density:                          117.678   117.381   4.8% |-|
   Symmetrize density:                       0.298     0.298   0.0% |
 Hamiltonian:                              110.546     0.140   0.0% |
  Atomic:                                   20.317     0.070   0.0% |
   XC Correction:                           20.247    20.247   0.8% |
  Calculate atomic Hamiltonians:             1.085     1.085   0.0% |
  Communicate:                               0.001     0.001   0.0% |
  Poisson:                                   0.103     0.103   0.0% |
  XC 3D grid:                               88.899    18.416   0.8% |
   VdW-DF integral:                         70.483     3.570   0.1% |
    Convolution:                            17.357    17.357   0.7% |
    FFT:                                     6.194     6.194   0.3% |
    gather:                                  0.057     0.057   0.0% |
    hmm1:                                    0.263     0.263   0.0% |
    hmm2:                                   13.066    13.066   0.5% |
    iFFT:                                    8.498     8.498   0.3% |
    potential:                              21.478     0.167   0.0% |
     collect:                                0.000     0.000   0.0% |
     p1:                                     2.278     2.278   0.1% |
     p2:                                    19.032    19.032   0.8% |
     sum:                                    0.001     0.001   0.0% |
    splines:                                 0.000     0.000   0.0% |
 Orthonormalize:                             4.153     0.041   0.0% |
  calc_s_matrix:                             0.539     0.539   0.0% |
  inverse-cholesky:                          0.068     0.068   0.0% |
  projections:                               2.675     2.675   0.1% |
  rotate_psi_s:                              0.831     0.831   0.0% |
Set symmetry:                                0.004     0.004   0.0% |
Other:                                     305.758   305.758  12.6% |----|
-------------------------------------------------------------------
Total:                                              2429.035 100.0%

Memory usage: 981.61 MiB
Date: Tue Apr  8 14:26:48 2025
