
  ___ ___ ___ _ _ _  
 |   |   |_  | | | | 
 | | | | | . | | | | 
 |__ |  _|___|_____|  25.1.0
 |___|_|             

User:   georgios-vourvachakis@georgios-vourvachakis-82K2
Date:   Tue Apr  8 14:54:42 2025
Arch:   x86_64
Pid:    24499
CWD:    /home/georgios-vourvachakis/Desktop/DFT_codes
Python: 3.12.3
gpaw:   /home/georgios-vourvachakis/Desktop/DFT_codes/.venv/lib/python3.12/site-packages/gpaw
_gpaw:  /home/georgios-vourvachakis/Desktop/DFT_codes/.venv/lib/python3.12/site-packages/
        _gpaw.cpython-312-x86_64-linux-gnu.so
ase:    /home/georgios-vourvachakis/Desktop/DFT_codes/.venv/lib/python3.12/site-packages/ase (version 3.24.0)
numpy:  /home/georgios-vourvachakis/Desktop/DFT_codes/.venv/lib/python3.12/site-packages/numpy (version 2.2.3)
scipy:  /home/georgios-vourvachakis/Desktop/DFT_codes/.venv/lib/python3.12/site-packages/scipy (version 1.15.1)
libxc:  5.2.3
units:  Angstrom and eV
cores: 1
OpenMP: False
OMP_NUM_THREADS: 1

Input parameters:
  kpts: [10 10  2]
  mode: {ecut: 600.0,
         name: pw}
  xc: vdW-DF2

System changes: positions, numbers, cell, pbc, initial_charges, initial_magmoms 

Initialize ...

species:
  W:
    name: Tungsten
    id: c5cdf39eb2772a6eef4e39aea6cd5c6f
    Z: 74.0
    valence: 14
    core: 60
    charge: 0.0
    file: /home/georgios-vourvachakis/Desktop/DFT_codes/gpaw_datasets/gpaw-setups-0.9.20000/W.revPBE.gz
    compensation charges: {type: gauss,
                           rc: 0.40,
                           lmax: 2}
    cutoffs: {filter: 2.36,
              core: 3.02}
    projectors:
      #              energy  rcut
      - 5s(2.00)   -78.785   1.344
      - 6s(2.00)    -5.639   1.344
      - 5p(6.00)   -43.193   1.355
      - 6p(0.00)    -1.336   1.355
      - 5d(4.00)    -4.444   1.228
      -  d          22.768   1.228
  
    # Using partial waves for W as LCAO basis

  Te:
    name: Tellurium
    id: cecded85d882fd4df90837008c85fd5a
    Z: 52.0
    valence: 6
    core: 46
    charge: 0.0
    file: /home/georgios-vourvachakis/Desktop/DFT_codes/gpaw_datasets/gpaw-setups-0.9.20000/Te.revPBE.gz
    compensation charges: {type: gauss,
                           rc: 0.36,
                           lmax: 2}
    cutoffs: {filter: 2.09,
              core: 3.17}
    projectors:
      #              energy  rcut
      - 5s(2.00)   -15.027   1.180
      - 5p(4.00)    -5.913   1.196
      -  s          12.185   1.180
      -  p          21.299   1.196
      -  d           0.000   1.238
  
    # Using partial waves for Te as LCAO basis

Reference energy: -1616751.480151  # eV

Spin-paired calculation

Convergence criteria:
 Maximum [total energy] change in last 3 cyles: 0.0005 eV / valence electron
 Maximum integral of absolute [dens]ity change: 0.0001 electrons / valence electron
 Maximum integral of absolute [eigenst]ate change: 4e-08 eV^2 / valence electron
 Maximum number of scf [iter]ations: 333
 (Square brackets indicate name in SCF output, whereas a 'c' in
 the SCF output indicates the quantity has converged.)

Symmetries present (total): 6

  ( 1  1  0)  ( 1  0  0)  ( 0  1  0)  ( 0 -1  0)  (-1  0  0)  (-1 -1  0)
  ( 0 -1  0)  ( 0  1  0)  (-1 -1  0)  (-1  0  0)  ( 1  1  0)  ( 1  0  0)
  ( 0  0  1)  ( 0  0  1)  ( 0  0  1)  ( 0  0  1)  ( 0  0  1)  ( 0  0  1)
Note: your k-points are not as symmetric as your crystal!

200 k-points: 10 x 10 x 2 Monkhorst-Pack grid
55 k-points in the irreducible part of the Brillouin zone
       k-points in crystal coordinates                weights
   0:     0.05000000   -0.05000000   -0.25000000          2/200
   1:     0.05000000   -0.05000000    0.25000000          2/200
   2:     0.05000000    0.05000000    0.25000000          4/200
   3:     0.15000000   -0.15000000   -0.25000000          2/200
   4:     0.15000000   -0.15000000    0.25000000          2/200
   5:     0.15000000   -0.05000000   -0.25000000          4/200
   6:     0.15000000   -0.05000000    0.25000000          4/200
   7:     0.15000000    0.05000000   -0.25000000          4/200
   8:     0.15000000    0.05000000    0.25000000          4/200
   9:     0.15000000    0.15000000    0.25000000          4/200
          ...
  54:     0.45000000    0.45000000    0.25000000          4/200

Wave functions: Plane wave expansion
  Cutoff energy: 600.000 eV
  Number of coefficients (min, max): 5199, 5256
  Pulay-stress correction: 0.000000 eV/Ang^3 (de/decut=0.000000)
  Using Numpy's FFT
  ScaLapack parameters: grid=1x1, blocksize=None
  Wavefunction extrapolation:
    Improved wavefunction reuse through dual PAW basis 

Occupation numbers: Fermi-Dirac:
  width: 0.1000  # eV
 

Eigensolver
   Davidson(niter=2) 

Densities:
  Coarse grid: 21*21*81 grid
  Fine grid: 42*42*162 grid
  Total Charge: 0.000000 

Density mixing:
  Method: separate
  Backend: pulay
  Linear mixing parameter: 0.05
  old densities: 5
  Damping of long wavelength oscillations: 50 

Hamiltonian:
  XC and Coulomb potentials evaluated on a 42*42*162 grid
  Using the vdW-DF2 Exchange-Correlation functional
  External potential:
    NoExternalPotential
 

XC parameters: vdW-DF2 with 2 nearest neighbor stencil

Memory estimate:
  Process memory now: 981.61 MiB
  Calculator: 236.07 MiB
    Density: 16.74 MiB
      Arrays: 7.09 MiB
      Localized functions: 6.93 MiB
      Mixer: 2.73 MiB
    Hamiltonian: 4.80 MiB
      Arrays: 4.63 MiB
      XC: 0.00 MiB
      Poisson: 0.00 MiB
      vbar: 0.17 MiB
    Wavefunctions: 214.53 MiB
      Arrays psit_nG: 158.80 MiB
      Eigensolver: 3.49 MiB
      Projections: 2.66 MiB
      Projectors: 43.81 MiB
      PW-descriptor: 5.77 MiB

Total number of cores used: 1

Number of atoms: 6
Number of atomic orbitals: 42
Number of bands in calculation: 36
Number of valence electrons: 52
Bands to converge: occupied

... initialized

Initializing position-dependent things.

Density initialized from atomic densities
Creating initial wave functions:
  36 bands from LCAO basis set

                  
                  
                  
                  
                  
       Te         
                  
                  
                  
                  
                  
                  
         Te       
                  
                  
                  
       W          
                  
                  
                  
                  
                  
                  
         W        
                  
         Te       
                  
                  
                  
                  
                  
                  
                  
                  
                  
       Te         
                  
                  
                  
                  

Positions:
   0 W      1.785500    1.030859    3.542500    ( 0.0000,  0.0000,  0.0000)
   1 W      1.785500   -1.030859   10.627500    ( 0.0000,  0.0000,  0.0000)
   2 Te     1.785500    1.030859   12.327900    ( 0.0000,  0.0000,  0.0000)
   3 Te     1.785500   -1.030859   -5.242900    ( 0.0000,  0.0000,  0.0000)
   4 Te     1.785500    1.030859    1.842100    ( 0.0000,  0.0000,  0.0000)
   5 Te     1.785500   -1.030859   19.412900    ( 0.0000,  0.0000,  0.0000)

Unit cell:
           periodic     x           y           z      points  spacing
  1. axis:    yes    1.785500   -3.092577    0.000000    21     0.1473
  2. axis:    yes    1.785500    3.092577    0.000000    21     0.1473
  3. axis:    yes    0.000000    0.000000   14.170000    81     0.1749

  Lengths:   3.571000   3.571000  14.170000
  Angles:   90.000000  90.000000 120.000000

Effective grid spacing dv^(1/3) = 0.1636

     iter     time        total  log10-change:
                         energy   eigst   dens
iter:   1 14:55:06  -707.848809
iter:   2 14:55:19  -705.799858   -0.68  -0.96
iter:   3 14:55:32  -704.319196   -1.24  -1.11
iter:   4 14:55:45  -703.233651   -1.56  -1.22
iter:   5 14:55:58  -702.832617   -1.66  -1.41
iter:   6 14:56:11  -702.824240   -2.47  -1.80
iter:   7 14:56:25  -702.828713c  -3.06  -1.88
iter:   8 14:56:40  -702.843481c  -2.48  -1.94
iter:   9 14:56:53  -702.840966c  -3.18  -2.30
iter:  10 14:57:06  -702.841735c  -3.86  -2.55
iter:  11 14:57:20  -702.840234c  -4.03  -2.59
iter:  12 14:57:33  -702.840457c  -4.52  -2.81
iter:  13 14:57:48  -702.840092c  -4.55  -2.93
iter:  14 14:58:01  -702.840137c  -5.14  -3.15
iter:  15 14:58:15  -702.840059c  -5.94  -3.30
iter:  16 14:58:29  -702.840027c  -5.79  -3.37
iter:  17 14:58:42  -702.840057c  -6.71  -3.69
iter:  18 14:58:56  -702.840061c  -6.85  -3.80
iter:  19 14:59:10  -702.840054c  -7.50c -3.90
iter:  20 14:59:24  -702.840027c  -7.13  -3.94
iter:  21 14:59:37  -702.840029c  -7.70c -4.12c

Converged after 21 iterations.

Dipole moment: (-0.000000, -0.000001, -0.181780) |e|*Ang

Energy contributions relative to reference atoms: (reference = -1616751.480151)

Kinetic:       +532.912039
Potential:     -451.325401
External:        +0.000000
XC:            -782.559261
Entropy (-ST):   -0.075439
Local:           -1.829687
SIC:             +0.000000
--------------------------
Free energy:   -702.877748
Extrapolated:  -702.840029

Showing only first 2 kpts
 Kpt  Band  Eigenvalues  Occupancy
  0    24      7.40356    1.99999
  0    25      8.45924    1.69133
  0    26      9.96268    0.00000
  0    27     10.06883    0.00000

  1    24      7.40356    1.99999
  1    25      8.45924    1.69133
  1    26      9.96268    0.00000
  1    27     10.06883    0.00000


Fermi level: 8.62934

No gap
No difference between direct/indirect transitions

Forces in eV/Ang:
  0 W    -0.00000    0.00000   75.65822
  1 W     0.00000   -0.00000   75.65824
  2 Te   -0.00000    0.00000    2.43277
  3 Te    0.00000   -0.00000  -78.09890
  4 Te   -0.00000    0.00000  -78.09892
  5 Te    0.00000   -0.00000    2.43277

System changes: positions 

Initializing position-dependent things.

Density initialized from wave functions
                  
                  
                  
                  
                  
       Te         
                  
                  
                  
                  
                  
                  
         Te       
                  
                  
                  
       W          
                  
                  
                  
                  
                  
                  
         W        
                  
         Te       
                  
                  
                  
                  
                  
                  
                  
                  
                  
       Te         
                  
                  
                  
                  

Positions:
   0 W      1.785500    1.030859    3.736250    ( 0.0000,  0.0000,  0.0000)
   1 W      1.785500   -1.030859   10.821250    ( 0.0000,  0.0000,  0.0000)
   2 Te     1.785500    1.030859   12.334130    ( 0.0000,  0.0000,  0.0000)
   3 Te     1.785500   -1.030859   -5.442900    ( 0.0000,  0.0000,  0.0000)
   4 Te     1.785500    1.030859    1.642100    ( 0.0000,  0.0000,  0.0000)
   5 Te     1.785500   -1.030859   19.419130    ( 0.0000,  0.0000,  0.0000)

Unit cell:
           periodic     x           y           z      points  spacing
  1. axis:    yes    1.785500   -3.092577    0.000000    21     0.1473
  2. axis:    yes    1.785500    3.092577    0.000000    21     0.1473
  3. axis:    yes    0.000000    0.000000   14.170000    81     0.1749

  Lengths:   3.571000   3.571000  14.170000
  Angles:   90.000000  90.000000 120.000000

Effective grid spacing dv^(1/3) = 0.1636

     iter     time        total  log10-change:
                         energy   eigst   dens
iter:   1 14:59:51  -754.613329   +0.48
iter:   2 15:00:05  -746.182422   -0.87  -0.70
iter:   3 15:00:18  -735.064408   -0.18  -0.82
iter:   4 15:00:32  -734.988288   -1.90  -1.43
iter:   5 15:00:45  -734.840134   -2.32  -1.51
iter:   6 15:00:58  -734.409377   -1.58  -1.60
iter:   7 15:01:12  -734.396446   -3.20  -1.96
iter:   8 15:01:26  -734.377318   -3.11  -2.00
iter:   9 15:01:40  -734.347624   -2.83  -2.11
iter:  10 15:01:54  -734.329269   -3.31  -2.15
iter:  11 15:02:07  -734.326381c  -3.57  -2.44
iter:  12 15:02:21  -734.326262c  -4.38  -2.68
iter:  13 15:02:34  -734.325875c  -5.23  -2.73
iter:  14 15:02:48  -734.325166c  -4.18  -2.78
iter:  15 15:03:02  -734.325258c  -4.96  -3.12
iter:  16 15:03:16  -734.325264c  -6.04  -3.23
iter:  17 15:03:30  -734.325330c  -5.75  -3.25
iter:  18 15:03:45  -734.325162c  -5.30  -3.28
iter:  19 15:03:59  -734.325140c  -6.06  -3.44
iter:  20 15:04:12  -734.325133c  -6.52  -3.59
iter:  21 15:04:26  -734.325092c  -6.89  -3.66
iter:  22 15:04:41  -734.325050c  -6.70  -3.74
iter:  23 15:04:54  -734.325064c  -7.03  -3.82
iter:  24 15:05:08  -734.325076c  -7.31  -3.89
iter:  25 15:05:23  -734.325062c  -6.78  -3.95
iter:  26 15:05:37  -734.325067c  -7.41c -4.21c

Converged after 26 iterations.

Dipole moment: (-0.000000, -0.000005, -0.553816) |e|*Ang

Energy contributions relative to reference atoms: (reference = -1616751.480151)

Kinetic:       +237.501876
Potential:     -208.945027
External:        +0.000000
XC:            -762.168321
Entropy (-ST):   -0.126654
Local:           -0.650268
SIC:             +0.000000
--------------------------
Free energy:   -734.388393
Extrapolated:  -734.325067

Showing only first 2 kpts
 Kpt  Band  Eigenvalues  Occupancy
  0    24      8.24255    1.86833
  0    25      9.19032    0.00217
  0    26     10.01927    0.00000
  0    27     10.10590    0.00000

  1    24      8.24255    1.86833
  1    25      9.19032    0.00217
  1    26     10.01927    0.00000
  1    27     10.10590    0.00000


Fermi level: 8.50780

No gap
No difference between direct/indirect transitions

Forces in eV/Ang:
  0 W     0.00000    0.00000   13.22120
  1 W     0.00000    0.00000   13.22160
  2 Te    0.00000    0.00000    3.61355
  3 Te    0.00000   -0.00000  -16.84575
  4 Te    0.00000    0.00000  -16.84534
  5 Te   -0.00000   -0.00000    3.61311

System changes: positions 

Initializing position-dependent things.

Density initialized from wave functions
                  
                  
                  
                  
                  
       Te         
                  
                  
                  
                  
                  
                  
                  
         Te       
                  
                  
       W          
                  
                  
                  
                  
                  
                  
         W        
                  
                  
         Te       
                  
                  
                  
                  
                  
                  
                  
                  
                  
       Te         
                  
                  
                  
                  

Positions:
   0 W      1.785500    1.030859    3.756450    ( 0.0000,  0.0000,  0.0000)
   1 W      1.785500   -1.030859   10.841450    ( 0.0000,  0.0000,  0.0000)
   2 Te     1.785500    1.030859   12.391465    ( 0.0000,  0.0000,  0.0000)
   3 Te     1.785500   -1.030859   -5.520605    ( 0.0000,  0.0000,  0.0000)
   4 Te     1.785500    1.030859    1.564395    ( 0.0000,  0.0000,  0.0000)
   5 Te     1.785500   -1.030859   19.476465    ( 0.0000,  0.0000,  0.0000)

Unit cell:
           periodic     x           y           z      points  spacing
  1. axis:    yes    1.785500   -3.092577    0.000000    21     0.1473
  2. axis:    yes    1.785500    3.092577    0.000000    21     0.1473
  3. axis:    yes    0.000000    0.000000   14.170000    81     0.1749

  Lengths:   3.571000   3.571000  14.170000
  Angles:   90.000000  90.000000 120.000000

Effective grid spacing dv^(1/3) = 0.1636

     iter     time        total  log10-change:
                         energy   eigst   dens
iter:   1 15:05:52  -737.432083   -1.26
iter:   2 15:06:06  -737.323268   -2.58  -1.62
iter:   3 15:06:21  -737.204071   -2.35  -1.74
iter:   4 15:06:34  -737.198881   -3.62  -2.15
iter:   5 15:06:48  -737.190795c  -3.97  -2.21
iter:   6 15:07:01  -737.185394c  -3.77  -2.31
iter:   7 15:07:15  -737.178819c  -3.68  -2.43
iter:   8 15:07:29  -737.178420c  -4.86  -2.81
iter:   9 15:07:42  -737.178110c  -4.43  -2.85
iter:  10 15:07:56  -737.177624c  -5.13  -3.06
iter:  11 15:08:10  -737.177618c  -6.23  -3.35
iter:  12 15:08:24  -737.177616c  -6.78  -3.42
iter:  13 15:08:37  -737.177612c  -6.20  -3.45
iter:  14 15:08:51  -737.177514c  -6.07  -3.61
iter:  15 15:09:05  -737.177510c  -7.17  -3.94
iter:  16 15:09:22  -737.177512c  -7.74c -3.98
iter:  17 15:09:42  -737.177508c  -7.44c -4.03c

Converged after 17 iterations.

Dipole moment: (-0.000000, 0.000025, -0.697737) |e|*Ang

Energy contributions relative to reference atoms: (reference = -1616751.480151)

Kinetic:       +186.743615
Potential:     -165.619353
External:        +0.000000
XC:            -757.710295
Entropy (-ST):   -0.137514
Local:           -0.522718
SIC:             +0.000000
--------------------------
Free energy:   -737.246265
Extrapolated:  -737.177508

Showing only first 2 kpts
 Kpt  Band  Eigenvalues  Occupancy
  0    24      8.23296    1.78100
  0    25      9.18530    0.00119
  0    26      9.95219    0.00000
  0    27     10.04096    0.00000

  1    24      8.23296    1.78100
  1    25      9.18530    0.00119
  1    26      9.95219    0.00000
  1    27     10.04097    0.00000


Fermi level: 8.44254

No gap
No difference between direct/indirect transitions

Forces in eV/Ang:
  0 W    -0.00000   -0.00000    7.62238
  1 W     0.00000    0.00000    7.62056
  2 Te   -0.00000    0.00000    2.69235
  3 Te    0.00000    0.00000  -10.32518
  4 Te   -0.00000   -0.00000  -10.32633
  5 Te    0.00000    0.00000    2.69354

System changes: positions 

Initializing position-dependent things.

Density initialized from wave functions
                  
                  
                  
                  
                  
       Te         
                  
                  
                  
                  
                  
                  
                  
         Te       
                  
                  
       W          
                  
                  
                  
                  
                  
                  
         W        
                  
                  
         Te       
                  
                  
                  
                  
                  
                  
                  
                  
                  
       Te         
                  
                  
                  
                  

Positions:
   0 W      1.785500    1.030859    3.778956    ( 0.0000,  0.0000,  0.0000)
   1 W      1.785500   -1.030859   10.863956    ( 0.0000,  0.0000,  0.0000)
   2 Te     1.785500    1.030859   12.503690    ( 0.0000,  0.0000,  0.0000)
   3 Te     1.785500   -1.030859   -5.655793    ( 0.0000,  0.0000,  0.0000)
   4 Te     1.785500    1.030859    1.429207    ( 0.0000,  0.0000,  0.0000)
   5 Te     1.785500   -1.030859   19.588690    ( 0.0000,  0.0000,  0.0000)

Unit cell:
           periodic     x           y           z      points  spacing
  1. axis:    yes    1.785500   -3.092577    0.000000    21     0.1473
  2. axis:    yes    1.785500    3.092577    0.000000    21     0.1473
  3. axis:    yes    0.000000    0.000000   14.170000    81     0.1749

  Lengths:   3.571000   3.571000  14.170000
  Angles:   90.000000  90.000000 120.000000

Effective grid spacing dv^(1/3) = 0.1636

     iter     time        total  log10-change:
                         energy   eigst   dens
iter:   1 15:09:57  -739.941919   -0.93
iter:   2 15:10:12  -739.783944   -2.34  -1.51
iter:   3 15:10:25  -739.617110   -2.26  -1.62
iter:   4 15:10:40  -739.574509   -3.10  -1.85
iter:   5 15:10:53  -739.560355   -3.86  -2.03
iter:   6 15:11:07  -739.544763   -3.28  -2.12
iter:   7 15:11:21  -739.534547c  -3.41  -2.30
iter:   8 15:11:35  -739.533872c  -4.54  -2.61
iter:   9 15:11:49  -739.532749c  -4.51  -2.66
iter:  10 15:12:03  -739.532069c  -4.84  -2.81
iter:  11 15:12:16  -739.531692c  -5.28  -2.98
iter:  12 15:12:31  -739.531678c  -6.15  -3.20
iter:  13 15:12:45  -739.531647c  -6.14  -3.24
iter:  14 15:12:59  -739.531610c  -6.16  -3.40
iter:  15 15:13:13  -739.531581c  -6.50  -3.64
iter:  16 15:13:26  -739.531565c  -7.21  -3.77
iter:  17 15:13:40  -739.531534c  -6.78  -3.81
iter:  18 15:13:56  -739.531504c  -7.01  -3.90
iter:  19 15:14:09  -739.531499c  -7.69c -4.19c

Converged after 19 iterations.

Dipole moment: (-0.000000, -0.000002, -1.045424) |e|*Ang

Energy contributions relative to reference atoms: (reference = -1616751.480151)

Kinetic:       +122.490179
Potential:     -109.844866
External:        +0.000000
XC:            -751.586176
Entropy (-ST):   -0.157037
Local:           -0.512119
SIC:             +0.000000
--------------------------
Free energy:   -739.610018
Extrapolated:  -739.531499

Showing only first 2 kpts
 Kpt  Band  Eigenvalues  Occupancy
  0    24      8.17738    1.73589
  0    25      9.13123    0.00095
  0    26      9.79905    0.00000
  0    27      9.89196    0.00000

  1    24      8.17738    1.73589
  1    25      9.13123    0.00095
  1    26      9.79905    0.00000
  1    27      9.89196    0.00000


Fermi level: 8.36567

No gap
No difference between direct/indirect transitions

Forces in eV/Ang:
  0 W    -0.00000    0.00000    2.71435
  1 W     0.00000   -0.00000    2.71431
  2 Te   -0.00000    0.00000    0.63939
  3 Te    0.00000    0.00000   -3.35061
  4 Te    0.00000    0.00000   -3.35053
  5 Te    0.00000   -0.00000    0.63930

System changes: positions 

Initializing position-dependent things.

Density initialized from wave functions
                  
                  
                  
                  
                  
       Te         
                  
                  
                  
                  
                  
                  
         Te       
                  
                  
                  
       W          
                  
                  
                  
                  
                  
                  
         W        
                  
                  
         Te       
                  
                  
                  
                  
                  
                  
                  
                  
                  
       Te         
                  
                  
                  
                  

Positions:
   0 W      1.785500    1.030859    3.792300    ( 0.0000,  0.0000,  0.0000)
   1 W      1.785500   -1.030859   10.877300    ( 0.0000,  0.0000,  0.0000)
   2 Te     1.785500    1.030859   12.550955    ( 0.0000,  0.0000,  0.0000)
   3 Te     1.785500   -1.030859   -5.716473    ( 0.0000,  0.0000,  0.0000)
   4 Te     1.785500    1.030859    1.368527    ( 0.0000,  0.0000,  0.0000)
   5 Te     1.785500   -1.030859   19.635955    ( 0.0000,  0.0000,  0.0000)

Unit cell:
           periodic     x           y           z      points  spacing
  1. axis:    yes    1.785500   -3.092577    0.000000    21     0.1473
  2. axis:    yes    1.785500    3.092577    0.000000    21     0.1473
  3. axis:    yes    0.000000    0.000000   14.170000    81     0.1749

  Lengths:   3.571000   3.571000  14.170000
  Angles:   90.000000  90.000000 120.000000

Effective grid spacing dv^(1/3) = 0.1636

     iter     time        total  log10-change:
                         energy   eigst   dens
iter:   1 15:14:23  -739.950469   -1.67
iter:   2 15:14:36  -739.914767   -3.13  -1.83
iter:   3 15:14:50  -739.869636   -2.83  -1.95
iter:   4 15:15:04  -739.868039   -4.22  -2.41
iter:   5 15:15:18  -739.866642c  -4.62  -2.46
iter:   6 15:15:31  -739.864002c  -4.05  -2.52
iter:   7 15:15:44  -739.862575c  -4.33  -2.70
iter:   8 15:15:58  -739.862488c  -5.47  -2.96
iter:   9 15:16:11  -739.862365c  -4.84  -3.00
iter:  10 15:16:25  -739.862252c  -5.68  -3.33
iter:  11 15:16:39  -739.862232c  -6.47  -3.53
iter:  12 15:16:52  -739.862229c  -7.21  -3.56
iter:  13 15:17:06  -739.862208c  -6.40  -3.58
iter:  14 15:17:19  -739.862198c  -6.98  -3.70
iter:  15 15:17:33  -739.862195c  -7.02  -3.81
iter:  16 15:17:46  -739.862189c  -7.21  -3.89
iter:  17 15:18:00  -739.862180c  -7.88c -4.07c

Converged after 17 iterations.

Dipole moment: (-0.000000, 0.000009, -1.277775) |e|*Ang

Energy contributions relative to reference atoms: (reference = -1616751.480151)

Kinetic:       +102.113114
Potential:      -91.829141
External:        +0.000000
XC:            -749.519655
Entropy (-ST):   -0.176585
Local:           -0.538206
SIC:             +0.000000
--------------------------
Free energy:   -739.950473
Extrapolated:  -739.862180

Showing only first 2 kpts
 Kpt  Band  Eigenvalues  Occupancy
  0    24      8.18751    1.67554
  0    25      9.13872    0.00076
  0    26      9.71437    0.00000
  0    27      9.80650    0.00000

  1    24      8.18751    1.67554
  1    25      9.13872    0.00076
  1    26      9.71436    0.00000
  1    27      9.80650    0.00000


Fermi level: 8.35168

No gap
No difference between direct/indirect transitions

Forces in eV/Ang:
  0 W     0.00000    0.00000    1.44347
  1 W     0.00000    0.00000    1.44217
  2 Te   -0.00000   -0.00000   -0.26052
  3 Te   -0.00000   -0.00000   -1.17622
  4 Te   -0.00000    0.00000   -1.17705
  5 Te    0.00000    0.00000   -0.26035

System changes: positions 

Initializing position-dependent things.

Density initialized from wave functions
                  
                  
                  
                  
                  
       Te         
                  
                  
                  
                  
                  
                  
         Te       
                  
                  
                  
       W          
                  
                  
                  
                  
                  
                  
         W        
                  
                  
         Te       
                  
                  
                  
                  
                  
                  
                  
                  
                  
       Te         
                  
                  
                  
                  

Positions:
   0 W      1.785500    1.030859    3.804285    ( 0.0000,  0.0000,  0.0000)
   1 W      1.785500   -1.030859   10.889285    ( 0.0000,  0.0000,  0.0000)
   2 Te     1.785500    1.030859   12.563054    ( 0.0000,  0.0000,  0.0000)
   3 Te     1.785500   -1.030859   -5.740493    ( 0.0000,  0.0000,  0.0000)
   4 Te     1.785500    1.030859    1.344507    ( 0.0000,  0.0000,  0.0000)
   5 Te     1.785500   -1.030859   19.648054    ( 0.0000,  0.0000,  0.0000)

Unit cell:
           periodic     x           y           z      points  spacing
  1. axis:    yes    1.785500   -3.092577    0.000000    21     0.1473
  2. axis:    yes    1.785500    3.092577    0.000000    21     0.1473
  3. axis:    yes    0.000000    0.000000   14.170000    81     0.1749

  Lengths:   3.571000   3.571000  14.170000
  Angles:   90.000000  90.000000 120.000000

Effective grid spacing dv^(1/3) = 0.1636

     iter     time        total  log10-change:
                         energy   eigst   dens
iter:   1 15:18:14  -739.955335   -2.28
iter:   2 15:18:27  -739.935017   -3.68  -1.97
iter:   3 15:18:40  -739.923749   -3.43  -2.10
iter:   4 15:18:54  -739.912533c  -3.84  -2.21
iter:   5 15:19:07  -739.912082c  -4.66  -2.73
iter:   6 15:19:21  -739.911621c  -4.82  -2.86
iter:   7 15:19:34  -739.911030c  -4.98  -2.94
iter:   8 15:19:47  -739.910973c  -5.76  -3.31
iter:   9 15:20:01  -739.910971c  -6.44  -3.36
iter:  10 15:20:15  -739.910965c  -5.95  -3.45
iter:  11 15:20:28  -739.910960c  -6.50  -3.67
iter:  12 15:20:41  -739.910935c  -6.93  -3.91
iter:  13 15:20:54  -739.910929c  -7.45c -4.00
iter:  14 15:21:08  -739.910918c  -7.39  -4.20c
iter:  15 15:21:21  -739.910916c  -8.26c -4.59c

Converged after 15 iterations.

Dipole moment: (-0.000000, -0.000008, -1.410593) |e|*Ang

Energy contributions relative to reference atoms: (reference = -1616751.480151)

Kinetic:        +95.853576
Potential:      -86.233066
External:        +0.000000
XC:            -748.905357
Entropy (-ST):   -0.189364
Local:           -0.531388
SIC:             +0.000000
--------------------------
Free energy:   -740.005598
Extrapolated:  -739.910916

Showing only first 2 kpts
 Kpt  Band  Eigenvalues  Occupancy
  0    24      8.21909    1.57037
  0    25      9.17045    0.00054
  0    26      9.68732    0.00000
  0    27      9.77813    0.00000

  1    24      8.21909    1.57037
  1    25      9.17045    0.00054
  1    26      9.68732    0.00000
  1    27      9.77813    0.00000


Fermi level: 8.34870

No gap
No difference between direct/indirect transitions

Forces in eV/Ang:
  0 W    -0.00000    0.00000    0.86911
  1 W     0.00000    0.00000    0.86901
  2 Te   -0.00000   -0.00000   -0.48280
  3 Te    0.00000    0.00000   -0.38579
  4 Te   -0.00000    0.00000   -0.38611
  5 Te   -0.00000   -0.00000   -0.48338

System changes: positions 

Initializing position-dependent things.

Density initialized from wave functions
                  
                  
                  
                  
                  
       Te         
                  
                  
                  
                  
                  
                  
         Te       
                  
                  
                  
       W          
                  
                  
                  
                  
                  
                  
         W        
                  
                  
         Te       
                  
                  
                  
                  
                  
                  
                  
                  
                  
       Te         
                  
                  
                  
                  

Positions:
   0 W      1.785500    1.030859    3.816193    ( 0.0000,  0.0000,  0.0000)
   1 W      1.785500   -1.030859   10.901193    ( 0.0000,  0.0000,  0.0000)
   2 Te     1.785500    1.030859   12.560682    ( 0.0000,  0.0000,  0.0000)
   3 Te     1.785500   -1.030859   -5.750024    ( 0.0000,  0.0000,  0.0000)
   4 Te     1.785500    1.030859    1.334976    ( 0.0000,  0.0000,  0.0000)
   5 Te     1.785500   -1.030859   19.645682    ( 0.0000,  0.0000,  0.0000)

Unit cell:
           periodic     x           y           z      points  spacing
  1. axis:    yes    1.785500   -3.092577    0.000000    21     0.1473
  2. axis:    yes    1.785500    3.092577    0.000000    21     0.1473
  3. axis:    yes    0.000000    0.000000   14.170000    81     0.1749

  Lengths:   3.571000   3.571000  14.170000
  Angles:   90.000000  90.000000 120.000000

Effective grid spacing dv^(1/3) = 0.1636

     iter     time        total  log10-change:
                         energy   eigst   dens
iter:   1 15:21:35  -739.965137   -2.50
iter:   2 15:21:48  -739.946729   -3.89  -2.02
iter:   3 15:22:02  -739.930471   -3.45  -2.17
iter:   4 15:22:15  -739.930266c  -4.35  -2.63
iter:   5 15:22:29  -739.929016c  -4.60  -2.65
iter:   6 15:22:42  -739.928791c  -5.24  -3.04
iter:   7 15:22:56  -739.928503c  -5.39  -3.11
iter:   8 15:23:09  -739.928495c  -6.18  -3.56
iter:   9 15:23:23  -739.928492c  -6.81  -3.60
iter:  10 15:23:36  -739.928480c  -6.64  -3.68
iter:  11 15:23:49  -739.928457c  -6.42  -3.68
iter:  12 15:24:03  -739.928454c  -7.54c -4.20c

Converged after 12 iterations.

Dipole moment: (-0.000000, 0.000022, -1.490859) |e|*Ang

Energy contributions relative to reference atoms: (reference = -1616751.480151)

Kinetic:        +94.282188
Potential:      -84.782182
External:        +0.000000
XC:            -748.799835
Entropy (-ST):   -0.197662
Local:           -0.529794
SIC:             +0.000000
--------------------------
Free energy:   -740.027286
Extrapolated:  -739.928454

Showing only first 2 kpts
 Kpt  Band  Eigenvalues  Occupancy
  0    24      8.25801    1.41395
  0    25      9.21092    0.00035
  0    26      9.68879    0.00000
  0    27      9.77866    0.00000

  1    24      8.25801    1.41395
  1    25      9.21092    0.00035
  1    26      9.68879    0.00000
  1    27      9.77866    0.00000


Fermi level: 8.34608

No gap
No difference between direct/indirect transitions

Forces in eV/Ang:
  0 W     0.00000   -0.00000    0.45683
  1 W     0.00000    0.00000    0.45643
  2 Te    0.00000    0.00000   -0.40119
  3 Te    0.00000   -0.00000   -0.05679
  4 Te   -0.00000    0.00000   -0.05678
  5 Te    0.00000    0.00000   -0.40091

System changes: positions 

Initializing position-dependent things.

Density initialized from wave functions
                  
                  
                  
                  
                  
       Te         
                  
                  
                  
                  
                  
                  
         Te       
                  
                  
                  
       W          
                  
                  
                  
                  
                  
                  
         W        
                  
                  
         Te       
                  
                  
                  
                  
                  
                  
                  
                  
                  
       Te         
                  
                  
                  
                  

Positions:
   0 W      1.785500    1.030859    3.828783    ( 0.0000,  0.0000,  0.0000)
   1 W      1.785500   -1.030859   10.913783    ( 0.0000,  0.0000,  0.0000)
   2 Te     1.785500    1.030859   12.550922    ( 0.0000,  0.0000,  0.0000)
   3 Te     1.785500   -1.030859   -5.752869    ( 0.0000,  0.0000,  0.0000)
   4 Te     1.785500    1.030859    1.332131    ( 0.0000,  0.0000,  0.0000)
   5 Te     1.785500   -1.030859   19.635922    ( 0.0000,  0.0000,  0.0000)

Unit cell:
           periodic     x           y           z      points  spacing
  1. axis:    yes    1.785500   -3.092577    0.000000    21     0.1473
  2. axis:    yes    1.785500    3.092577    0.000000    21     0.1473
  3. axis:    yes    0.000000    0.000000   14.170000    81     0.1749

  Lengths:   3.571000   3.571000  14.170000
  Angles:   90.000000  90.000000 120.000000

Effective grid spacing dv^(1/3) = 0.1636

     iter     time        total  log10-change:
                         energy   eigst   dens
iter:   1 15:24:18  -739.976657   -2.46
iter:   2 15:24:31  -739.956005   -3.85  -2.00
iter:   3 15:24:44  -739.939024   -3.48  -2.17
iter:   4 15:24:57  -739.937652c  -3.95  -2.62
iter:   5 15:25:11  -739.937383c  -5.08  -2.90
iter:   6 15:25:24  -739.937130c  -5.36  -3.05
iter:   7 15:25:38  -739.936953c  -5.18  -3.10
iter:   8 15:25:51  -739.936937c  -6.09  -3.54
iter:   9 15:26:04  -739.936918c  -6.78  -3.59
iter:  10 15:26:18  -739.936850c  -6.07  -3.68
iter:  11 15:26:31  -739.936844c  -6.88  -4.08c
iter:  12 15:26:44  -739.936844c  -7.65c -4.14c

Converged after 12 iterations.

Dipole moment: (-0.000000, -0.000016, -1.544983) |e|*Ang

Energy contributions relative to reference atoms: (reference = -1616751.480151)

Kinetic:        +94.860125
Potential:      -85.226159
External:        +0.000000
XC:            -748.936797
Entropy (-ST):   -0.203901
Local:           -0.532063
SIC:             +0.000000
--------------------------
Free energy:   -740.038794
Extrapolated:  -739.936844

Showing only first 2 kpts
 Kpt  Band  Eigenvalues  Occupancy
  0    24      8.30470    1.18739
  0    25      9.26041    0.00021
  0    26      9.70500    0.00000
  0    27      9.79426    0.00000

  1    24      8.30470    1.18739
  1    25      9.26041    0.00021
  1    26      9.70500    0.00000
  1    27      9.79426    0.00000


Fermi level: 8.34263

No gap
No difference between direct/indirect transitions

Forces in eV/Ang:
  0 W     0.00000    0.00000    0.05629
  1 W    -0.00000   -0.00000    0.05723
  2 Te    0.00000    0.00000   -0.15521
  3 Te    0.00000    0.00000    0.10955
  4 Te   -0.00000   -0.00000    0.10978
  5 Te    0.00000   -0.00000   -0.15562

System changes: positions 

Initializing position-dependent things.

Density initialized from wave functions
                  
                  
                  
                  
                  
       Te         
                  
                  
                  
                  
                  
                  
         Te       
                  
                  
                  
       W          
                  
                  
                  
                  
                  
                  
         W        
                  
                  
         Te       
                  
                  
                  
                  
                  
                  
                  
                  
                  
       Te         
                  
                  
                  
                  

Positions:
   0 W      1.785500    1.030859    3.831476    ( 0.0000,  0.0000,  0.0000)
   1 W      1.785500   -1.030859   10.916476    ( 0.0000,  0.0000,  0.0000)
   2 Te     1.785500    1.030859   12.545519    ( 0.0000,  0.0000,  0.0000)
   3 Te     1.785500   -1.030859   -5.749957    ( 0.0000,  0.0000,  0.0000)
   4 Te     1.785500    1.030859    1.335043    ( 0.0000,  0.0000,  0.0000)
   5 Te     1.785500   -1.030859   19.630519    ( 0.0000,  0.0000,  0.0000)

Unit cell:
           periodic     x           y           z      points  spacing
  1. axis:    yes    1.785500   -3.092577    0.000000    21     0.1473
  2. axis:    yes    1.785500    3.092577    0.000000    21     0.1473
  3. axis:    yes    0.000000    0.000000   14.170000    81     0.1749

  Lengths:   3.571000   3.571000  14.170000
  Angles:   90.000000  90.000000 120.000000

Effective grid spacing dv^(1/3) = 0.1636

     iter     time        total  log10-change:
                         energy   eigst   dens
iter:   1 15:26:59  -739.940523   -3.58
iter:   2 15:27:13  -739.939358   -4.97  -2.64
iter:   3 15:27:26  -739.939063c  -5.07  -2.80
iter:   4 15:27:39  -739.938357c  -5.30  -2.83
iter:   5 15:27:52  -739.938304c  -5.25  -3.27
iter:   6 15:28:05  -739.938275c  -5.98  -3.55
iter:   7 15:28:19  -739.938283c  -6.12  -3.62
iter:   8 15:28:32  -739.938286c  -7.06  -4.02c
iter:   9 15:28:45  -739.938281c  -7.85c -4.08c

Converged after 9 iterations.

Dipole moment: (-0.000000, 0.000014, -1.538354) |e|*Ang

Energy contributions relative to reference atoms: (reference = -1616751.480151)

Kinetic:        +96.033540
Potential:      -86.239690
External:        +0.000000
XC:            -749.079327
Entropy (-ST):   -0.204108
Local:           -0.550749
SIC:             +0.000000
--------------------------
Free energy:   -740.040335
Extrapolated:  -739.938281

Showing only first 2 kpts
 Kpt  Band  Eigenvalues  Occupancy
  0    24      8.31786    1.11662
  0    25      9.27406    0.00018
  0    26      9.71516    0.00000
  0    27      9.80437    0.00000

  1    24      8.31786    1.11663
  1    25      9.27406    0.00018
  1    26      9.71516    0.00000
  1    27      9.80437    0.00000


Fermi level: 8.34130

No gap
No difference between direct/indirect transitions

Forces in eV/Ang:
  0 W     0.00000    0.00000   -0.02560
  1 W     0.00000    0.00000   -0.02726
  2 Te    0.00000    0.00000   -0.02988
  3 Te    0.00000   -0.00000    0.04363
  4 Te   -0.00000    0.00000    0.04315
  5 Te    0.00000    0.00000   -0.02951

Timing:                                      incl.     excl.
-------------------------------------------------------------------
Density initialized from wave functions:     6.717     6.700   0.3% |
 Symmetrize density:                         0.017     0.017   0.0% |
Forces:                                      6.527     6.527   0.3% |
Hamiltonian:                                 8.631     0.008   0.0% |
 Atomic:                                     1.283     0.004   0.0% |
  XC Correction:                             1.279     1.279   0.1% |
 Calculate atomic Hamiltonians:              0.068     0.068   0.0% |
 Communicate:                                0.000     0.000   0.0% |
 Initialize Hamiltonian:                     0.000     0.000   0.0% |
 Poisson:                                    0.005     0.005   0.0% |
 XC 3D grid:                                 7.266     1.094   0.0% |
  VdW-DF integral:                           6.173     0.333   0.0% |
   Convolution:                              1.070     1.070   0.0% |
   FFT:                                      0.400     0.400   0.0% |
   gather:                                   0.003     0.003   0.0% |
   hmm1:                                     0.019     0.019   0.0% |
   hmm2:                                     0.846     0.846   0.0% |
   iFFT:                                     0.529     0.529   0.0% |
   potential:                                1.393     0.011   0.0% |
    collect:                                 0.000     0.000   0.0% |
    p1:                                      0.152     0.152   0.0% |
    p2:                                      1.230     1.230   0.1% |
    sum:                                     0.000     0.000   0.0% |
   splines:                                  1.580     1.580   0.1% |
LCAO initialization:                        10.221     0.051   0.0% |
 LCAO eigensolver:                           3.877     0.002   0.0% |
  Calculate projections:                     0.005     0.005   0.0% |
  DenseAtomicCorrection:                     0.014     0.014   0.0% |
  Distribute overlap matrix:                 0.001     0.001   0.0% |
  Orbital Layouts:                           1.955     1.955   0.1% |
  Potential matrix:                          0.215     0.215   0.0% |
  Sum over cells:                            1.684     1.684   0.1% |
 LCAO to grid:                               5.972     5.972   0.3% |
 Set positions (LCAO WFS):                   0.320     0.046   0.0% |
  Basic WFS set positions:                   0.000     0.000   0.0% |
  Basis functions set positions:             0.000     0.000   0.0% |
  P tci:                                     0.164     0.164   0.0% |
  ST tci:                                    0.105     0.105   0.0% |
  mktci:                                     0.004     0.004   0.0% |
PWDescriptor:                                0.042     0.042   0.0% |
Redistribute:                                0.046     0.046   0.0% |
SCF-cycle:                                2008.948     2.012   0.1% |
 Davidson:                                1762.659   195.469   8.4% |--|
  Apply H:                                 347.686   343.571  14.7% |-----|
   HMM T:                                    4.115     4.115   0.2% |
  Subspace diag:                           390.276     0.560   0.0% |
   calc_h_matrix:                          363.530    14.900   0.6% |
    Apply H:                               348.630   344.246  14.7% |-----|
     HMM T:                                  4.384     4.384   0.2% |
   diagonalize:                              2.951     2.951   0.1% |
   rotate_psi:                              23.235    23.235   1.0% |
  calc. matrices:                          697.452    80.648   3.5% ||
   Apply H:                                616.804   607.986  26.0% |---------|
    HMM T:                                   8.818     8.818   0.4% |
  diagonalize:                              88.975    88.975   3.8% |-|
  rotate_psi:                               42.801    42.801   1.8% ||
 Density:                                  133.127     0.002   0.0% |
  Atomic density matrices:                   0.579     0.579   0.0% |
  Mix:                                      13.768    13.768   0.6% |
  Multipole moments:                         0.012     0.012   0.0% |
  Pseudo density:                          118.767   118.470   5.1% |-|
   Symmetrize density:                       0.297     0.297   0.0% |
 Hamiltonian:                              107.556     0.137   0.0% |
  Atomic:                                   20.004     0.068   0.0% |
   XC Correction:                           19.936    19.936   0.9% |
  Calculate atomic Hamiltonians:             1.067     1.067   0.0% |
  Communicate:                               0.001     0.001   0.0% |
  Poisson:                                   0.094     0.094   0.0% |
  XC 3D grid:                               86.254    17.806   0.8% |
   VdW-DF integral:                         68.447     3.288   0.1% |
    Convolution:                            16.777    16.777   0.7% |
    FFT:                                     6.310     6.310   0.3% |
    gather:                                  0.055     0.055   0.0% |
    hmm1:                                    0.252     0.252   0.0% |
    hmm2:                                   13.384    13.384   0.6% |
    iFFT:                                    8.184     8.184   0.4% |
    potential:                              20.198     0.161   0.0% |
     collect:                                0.000     0.000   0.0% |
     p1:                                     2.197     2.197   0.1% |
     p2:                                    17.839    17.839   0.8% |
     sum:                                    0.001     0.001   0.0% |
    splines:                                 0.000     0.000   0.0% |
 Orthonormalize:                             3.592     0.037   0.0% |
  calc_s_matrix:                             0.472     0.472   0.0% |
  inverse-cholesky:                          0.058     0.058   0.0% |
  projections:                               2.321     2.321   0.1% |
  rotate_psi_s:                              0.704     0.704   0.0% |
Set symmetry:                                0.004     0.004   0.0% |
Other:                                     294.493   294.493  12.6% |----|
-------------------------------------------------------------------
Total:                                              2335.628 100.0%

Memory usage: 990.67 MiB
Date: Tue Apr  8 15:33:37 2025
