
  ___ ___ ___ _ _ _  
 |   |   |_  | | | | 
 | | | | | . | | | | 
 |__ |  _|___|_____|  25.1.0
 |___|_|             

User:   georgios-vourvachakis@georgios-vourvachakis-82K2
Date:   Tue Apr  8 12:31:40 2025
Arch:   x86_64
Pid:    24499
CWD:    /home/georgios-vourvachakis/Desktop/DFT_codes
Python: 3.12.3
gpaw:   /home/georgios-vourvachakis/Desktop/DFT_codes/.venv/lib/python3.12/site-packages/gpaw
_gpaw:  /home/georgios-vourvachakis/Desktop/DFT_codes/.venv/lib/python3.12/site-packages/
        _gpaw.cpython-312-x86_64-linux-gnu.so
ase:    /home/georgios-vourvachakis/Desktop/DFT_codes/.venv/lib/python3.12/site-packages/ase (version 3.24.0)
numpy:  /home/georgios-vourvachakis/Desktop/DFT_codes/.venv/lib/python3.12/site-packages/numpy (version 2.2.3)
scipy:  /home/georgios-vourvachakis/Desktop/DFT_codes/.venv/lib/python3.12/site-packages/scipy (version 1.15.1)
libxc:  5.2.3
units:  Angstrom and eV
cores: 1
OpenMP: False
OMP_NUM_THREADS: 1

Input parameters:
  kpts: [10 10  2]
  mode: {ecut: 600.0,
         name: pw}
  xc: vdW-DF2

System changes: positions, numbers, cell, pbc, initial_charges, initial_magmoms 

Initialize ...

species:
  W:
    name: Tungsten
    id: c5cdf39eb2772a6eef4e39aea6cd5c6f
    Z: 74.0
    valence: 14
    core: 60
    charge: 0.0
    file: /home/georgios-vourvachakis/Desktop/DFT_codes/gpaw_datasets/gpaw-setups-0.9.20000/W.revPBE.gz
    compensation charges: {type: gauss,
                           rc: 0.40,
                           lmax: 2}
    cutoffs: {filter: 2.36,
              core: 3.02}
    projectors:
      #              energy  rcut
      - 5s(2.00)   -78.785   1.344
      - 6s(2.00)    -5.639   1.344
      - 5p(6.00)   -43.193   1.355
      - 6p(0.00)    -1.336   1.355
      - 5d(4.00)    -4.444   1.228
      -  d          22.768   1.228
  
    # Using partial waves for W as LCAO basis

  Te:
    name: Tellurium
    id: cecded85d882fd4df90837008c85fd5a
    Z: 52.0
    valence: 6
    core: 46
    charge: 0.0
    file: /home/georgios-vourvachakis/Desktop/DFT_codes/gpaw_datasets/gpaw-setups-0.9.20000/Te.revPBE.gz
    compensation charges: {type: gauss,
                           rc: 0.36,
                           lmax: 2}
    cutoffs: {filter: 2.09,
              core: 3.17}
    projectors:
      #              energy  rcut
      - 5s(2.00)   -15.027   1.180
      - 5p(4.00)    -5.913   1.196
      -  s          12.185   1.180
      -  p          21.299   1.196
      -  d           0.000   1.238
  
    # Using partial waves for Te as LCAO basis

Reference energy: -1616751.480151  # eV

Spin-paired calculation

Convergence criteria:
 Maximum [total energy] change in last 3 cyles: 0.0005 eV / valence electron
 Maximum integral of absolute [dens]ity change: 0.0001 electrons / valence electron
 Maximum integral of absolute [eigenst]ate change: 4e-08 eV^2 / valence electron
 Maximum number of scf [iter]ations: 333
 (Square brackets indicate name in SCF output, whereas a 'c' in
 the SCF output indicates the quantity has converged.)

Symmetries present (total): 6

  ( 1  1  0)  ( 1  0  0)  ( 0  1  0)  ( 0 -1  0)  (-1  0  0)  (-1 -1  0)
  ( 0 -1  0)  ( 0  1  0)  (-1 -1  0)  (-1  0  0)  ( 1  1  0)  ( 1  0  0)
  ( 0  0  1)  ( 0  0  1)  ( 0  0  1)  ( 0  0  1)  ( 0  0  1)  ( 0  0  1)
Note: your k-points are not as symmetric as your crystal!

200 k-points: 10 x 10 x 2 Monkhorst-Pack grid
55 k-points in the irreducible part of the Brillouin zone
       k-points in crystal coordinates                weights
   0:     0.05000000   -0.05000000   -0.25000000          2/200
   1:     0.05000000   -0.05000000    0.25000000          2/200
   2:     0.05000000    0.05000000    0.25000000          4/200
   3:     0.15000000   -0.15000000   -0.25000000          2/200
   4:     0.15000000   -0.15000000    0.25000000          2/200
   5:     0.15000000   -0.05000000   -0.25000000          4/200
   6:     0.15000000   -0.05000000    0.25000000          4/200
   7:     0.15000000    0.05000000   -0.25000000          4/200
   8:     0.15000000    0.05000000    0.25000000          4/200
   9:     0.15000000    0.15000000    0.25000000          4/200
          ...
  54:     0.45000000    0.45000000    0.25000000          4/200

Wave functions: Plane wave expansion
  Cutoff energy: 600.000 eV
  Number of coefficients (min, max): 5091, 5158
  Pulay-stress correction: 0.000000 eV/Ang^3 (de/decut=0.000000)
  Using Numpy's FFT
  ScaLapack parameters: grid=1x1, blocksize=None
  Wavefunction extrapolation:
    Improved wavefunction reuse through dual PAW basis 

Occupation numbers: Fermi-Dirac:
  width: 0.1000  # eV
 

Eigensolver
   Davidson(niter=2) 

Densities:
  Coarse grid: 21*21*80 grid
  Fine grid: 42*42*160 grid
  Total Charge: 0.000000 

Density mixing:
  Method: separate
  Backend: pulay
  Linear mixing parameter: 0.05
  old densities: 5
  Damping of long wavelength oscillations: 50 

Hamiltonian:
  XC and Coulomb potentials evaluated on a 42*42*160 grid
  Using the vdW-DF2 Exchange-Correlation functional
  External potential:
    NoExternalPotential
 

XC parameters: vdW-DF2 with 2 nearest neighbor stencil

Memory estimate:
  Process memory now: 723.31 MiB
  Calculator: 231.87 MiB
    Density: 16.48 MiB
      Arrays: 7.00 MiB
      Localized functions: 6.79 MiB
      Mixer: 2.69 MiB
    Hamiltonian: 4.74 MiB
      Arrays: 4.58 MiB
      XC: 0.00 MiB
      Poisson: 0.00 MiB
      vbar: 0.17 MiB
    Wavefunctions: 210.65 MiB
      Arrays psit_nG: 155.84 MiB
      Eigensolver: 3.43 MiB
      Projections: 2.66 MiB
      Projectors: 43.05 MiB
      PW-descriptor: 5.67 MiB

Total number of cores used: 1

Number of atoms: 6
Number of atomic orbitals: 42
Number of bands in calculation: 36
Number of valence electrons: 52
Bands to converge: occupied

... initialized

Initializing position-dependent things.

Density initialized from atomic densities
Creating initial wave functions:
  36 bands from LCAO basis set

                  
                  
                  
                  
                  
       Te         
                  
                  
                  
                  
                  
                  
         Te       
                  
                  
                  
       W          
                  
                  
                  
                  
                  
                  
         W        
                  
         Te       
                  
                  
                  
                  
                  
                  
                  
                  
                  
       Te         
                  
                  
                  
                  

Positions:
   0 W      1.773000    1.023642    3.530000    ( 0.0000,  0.0000,  0.0000)
   1 W      1.773000   -1.023642   10.590000    ( 0.0000,  0.0000,  0.0000)
   2 Te     1.773000    1.023642   12.284400    ( 0.0000,  0.0000,  0.0000)
   3 Te     1.773000   -1.023642   -5.224400    ( 0.0000,  0.0000,  0.0000)
   4 Te     1.773000    1.023642    1.835600    ( 0.0000,  0.0000,  0.0000)
   5 Te     1.773000   -1.023642   19.344400    ( 0.0000,  0.0000,  0.0000)

Unit cell:
           periodic     x           y           z      points  spacing
  1. axis:    yes    1.773000   -3.070926    0.000000    21     0.1462
  2. axis:    yes    1.773000    3.070926    0.000000    21     0.1462
  3. axis:    yes    0.000000    0.000000   14.120000    80     0.1765

  Lengths:   3.546000   3.546000  14.120000
  Angles:   90.000000  90.000000 120.000000

Effective grid spacing dv^(1/3) = 0.1633

     iter     time        total  log10-change:
                         energy   eigst   dens
iter:   1 12:32:28  -706.813390
iter:   2 12:33:04  -704.694870   -0.67  -0.96
iter:   3 12:33:41  -703.161032   -1.23  -1.10
iter:   4 12:34:17  -702.079634   -1.55  -1.23
iter:   5 12:34:53  -701.664237   -1.65  -1.41
iter:   6 12:35:27  -701.656636   -2.48  -1.80
iter:   7 12:36:02  -701.660563c  -3.08  -1.89
iter:   8 12:36:40  -701.676090c  -2.48  -1.94
iter:   9 12:37:19  -701.673143c  -3.16  -2.28
iter:  10 12:37:54  -701.674026c  -3.82  -2.55
iter:  11 12:38:09  -701.672537c  -4.12  -2.59
iter:  12 12:38:24  -701.672777c  -4.53  -2.78
iter:  13 12:38:38  -701.672326c  -4.42  -2.90
iter:  14 12:38:53  -701.672367c  -5.02  -3.11
iter:  15 12:39:08  -701.672307c  -5.88  -3.31
iter:  16 12:39:22  -701.672279c  -5.79  -3.36
iter:  17 12:39:44  -701.672303c  -6.59  -3.73
iter:  18 12:40:08  -701.672293c  -6.96  -3.84
iter:  19 12:40:30  -701.672285c  -7.65c -3.92
iter:  20 12:40:44  -701.672260c  -7.10  -3.96
iter:  21 12:41:05  -701.672261c  -7.65c -4.13c

Converged after 21 iterations.

Dipole moment: (-0.000000, -0.000000, -0.177627) |e|*Ang

Energy contributions relative to reference atoms: (reference = -1616751.480151)

Kinetic:       +546.275951
Potential:     -462.141258
External:        +0.000000
XC:            -783.926345
Entropy (-ST):   -0.075424
Local:           -1.842897
SIC:             +0.000000
--------------------------
Free energy:   -701.709974
Extrapolated:  -701.672261

Showing only first 2 kpts
 Kpt  Band  Eigenvalues  Occupancy
  0    24      7.60448    1.99999
  0    25      8.66757    1.74053
  0    26     10.25493    0.00000
  0    27     10.36522    0.00000

  1    24      7.60448    1.99999
  1    25      8.66757    1.74053
  1    26     10.25493    0.00000
  1    27     10.36522    0.00000


Fermi level: 8.85790

No gap
No difference between direct/indirect transitions

Forces in eV/Ang:
  0 W     0.00000    0.00000   76.84522
  1 W    -0.00000   -0.00000   76.84522
  2 Te    0.00000    0.00000    2.72344
  3 Te   -0.00000   -0.00000  -79.56925
  4 Te   -0.00000    0.00000  -79.56925
  5 Te    0.00000    0.00000    2.72344

System changes: positions 

Initializing position-dependent things.

Density initialized from wave functions
                  
                  
                  
                  
                  
       Te         
                  
                  
                  
                  
                  
                  
         Te       
                  
                  
                  
       W          
                  
                  
                  
                  
                  
                  
         W        
                  
         Te       
                  
                  
                  
                  
                  
                  
                  
                  
                  
       Te         
                  
                  
                  
                  

Positions:
   0 W      1.773000    1.023642    3.723153    ( 0.0000,  0.0000,  0.0000)
   1 W      1.773000   -1.023642   10.783153    ( 0.0000,  0.0000,  0.0000)
   2 Te     1.773000    1.023642   12.291245    ( 0.0000,  0.0000,  0.0000)
   3 Te     1.773000   -1.023642   -5.424400    ( 0.0000,  0.0000,  0.0000)
   4 Te     1.773000    1.023642    1.635600    ( 0.0000,  0.0000,  0.0000)
   5 Te     1.773000   -1.023642   19.351245    ( 0.0000,  0.0000,  0.0000)

Unit cell:
           periodic     x           y           z      points  spacing
  1. axis:    yes    1.773000   -3.070926    0.000000    21     0.1462
  2. axis:    yes    1.773000    3.070926    0.000000    21     0.1462
  3. axis:    yes    0.000000    0.000000   14.120000    80     0.1765

  Lengths:   3.546000   3.546000  14.120000
  Angles:   90.000000  90.000000 120.000000

Effective grid spacing dv^(1/3) = 0.1633

     iter     time        total  log10-change:
                         energy   eigst   dens
iter:   1 12:41:21  -754.205983   +0.49
iter:   2 12:41:35  -745.689484   -0.87  -0.70
iter:   3 12:41:50  -734.513629   -0.17  -0.82
iter:   4 12:42:05  -734.428865   -1.92  -1.43
iter:   5 12:42:19  -734.293366   -2.33  -1.51
iter:   6 12:42:34  -733.846830   -1.57  -1.60
iter:   7 12:42:48  -733.834051   -3.21  -1.96
iter:   8 12:43:02  -733.814753   -3.10  -2.01
iter:   9 12:43:17  -733.785438   -2.81  -2.11
iter:  10 12:43:31  -733.766858   -3.30  -2.15
iter:  11 12:43:45  -733.763931c  -3.56  -2.44
iter:  12 12:44:00  -733.763870c  -4.44  -2.69
iter:  13 12:44:16  -733.763259c  -3.89  -2.73
iter:  14 12:44:31  -733.762772c  -4.51  -2.91
iter:  15 12:44:47  -733.762805c  -5.38  -3.33
iter:  16 12:45:01  -733.762805c  -6.45  -3.38
iter:  17 12:45:15  -733.762772c  -5.54  -3.39
iter:  18 12:45:29  -733.762727c  -5.54  -3.57
iter:  19 12:45:44  -733.762677c  -6.77  -3.77
iter:  20 12:45:58  -733.762668c  -6.83  -4.02c
iter:  21 12:46:13  -733.762666c  -8.10c -4.06c

Converged after 21 iterations.

Dipole moment: (-0.000000, 0.000001, -0.556480) |e|*Ang

Energy contributions relative to reference atoms: (reference = -1616751.480151)

Kinetic:       +248.008161
Potential:     -217.651809
External:        +0.000000
XC:            -763.415861
Entropy (-ST):   -0.127332
Local:           -0.639491
SIC:             +0.000000
--------------------------
Free energy:   -733.826332
Extrapolated:  -733.762666

Showing only first 2 kpts
 Kpt  Band  Eigenvalues  Occupancy
  0    24      8.44662    1.88422
  0    25      9.40720    0.00219
  0    26     10.31399    0.00000
  0    27     10.40512    0.00000

  1    24      8.44662    1.88422
  1    25      9.40720    0.00219
  1    26     10.31399    0.00000
  1    27     10.40512    0.00000


Fermi level: 8.72557

No gap
No difference between direct/indirect transitions

Forces in eV/Ang:
  0 W     0.00000   -0.00000   13.37634
  1 W     0.00000   -0.00000   13.37626
  2 Te    0.00000    0.00000    4.00440
  3 Te    0.00000   -0.00000  -17.37761
  4 Te    0.00000   -0.00000  -17.37767
  5 Te    0.00000   -0.00000    4.00447

System changes: positions 

Initializing position-dependent things.

Density initialized from wave functions
                  
                  
                  
                  
                  
       Te         
                  
                  
                  
                  
                  
                  
                  
         Te       
                  
                  
       W          
                  
                  
                  
                  
                  
                  
         W        
                  
                  
         Te       
                  
                  
                  
                  
                  
                  
                  
                  
                  
       Te         
                  
                  
                  
                  

Positions:
   0 W      1.773000    1.023642    3.740841    ( 0.0000,  0.0000,  0.0000)
   1 W      1.773000   -1.023642   10.800841    ( 0.0000,  0.0000,  0.0000)
   2 Te     1.773000    1.023642   12.354740    ( 0.0000,  0.0000,  0.0000)
   3 Te     1.773000   -1.023642   -5.505525    ( 0.0000,  0.0000,  0.0000)
   4 Te     1.773000    1.023642    1.554475    ( 0.0000,  0.0000,  0.0000)
   5 Te     1.773000   -1.023642   19.414740    ( 0.0000,  0.0000,  0.0000)

Unit cell:
           periodic     x           y           z      points  spacing
  1. axis:    yes    1.773000   -3.070926    0.000000    21     0.1462
  2. axis:    yes    1.773000    3.070926    0.000000    21     0.1462
  3. axis:    yes    0.000000    0.000000   14.120000    80     0.1765

  Lengths:   3.546000   3.546000  14.120000
  Angles:   90.000000  90.000000 120.000000

Effective grid spacing dv^(1/3) = 0.1633

     iter     time        total  log10-change:
                         energy   eigst   dens
iter:   1 12:46:29  -737.020509   -1.24
iter:   2 12:46:42  -736.930326   -2.55  -1.66
iter:   3 12:46:57  -736.827658   -2.40  -1.77
iter:   4 12:47:11  -736.819465   -3.59  -2.16
iter:   5 12:47:25  -736.814405c  -4.01  -2.25
iter:   6 12:47:39  -736.809434c  -3.79  -2.32
iter:   7 12:47:53  -736.803622c  -3.73  -2.45
iter:   8 12:48:07  -736.803281c  -4.93  -2.81
iter:   9 12:48:21  -736.802823c  -4.45  -2.85
iter:  10 12:48:36  -736.802467c  -5.36  -3.11
iter:  11 12:48:50  -736.802448c  -6.05  -3.40
iter:  12 12:49:04  -736.802451c  -6.64  -3.44
iter:  13 12:49:18  -736.802461c  -6.59  -3.46
iter:  14 12:49:32  -736.802431c  -6.63  -3.54
iter:  15 12:49:46  -736.802413c  -7.07  -3.68
iter:  16 12:50:00  -736.802372c  -6.93  -3.76
iter:  17 12:50:14  -736.802359c  -7.24  -3.98
iter:  18 12:50:28  -736.802353c  -7.30  -4.10c
iter:  19 12:50:42  -736.802347c  -7.60c -4.22c

Converged after 19 iterations.

Dipole moment: (-0.000000, -0.000001, -0.705326) |e|*Ang

Energy contributions relative to reference atoms: (reference = -1616751.480151)

Kinetic:       +194.674849
Potential:     -172.172947
External:        +0.000000
XC:            -758.696297
Entropy (-ST):   -0.136782
Local:           -0.539562
SIC:             +0.000000
--------------------------
Free energy:   -736.870738
Extrapolated:  -736.802347

Showing only first 2 kpts
 Kpt  Band  Eigenvalues  Occupancy
  0    24      8.41923    1.83734
  0    25      9.38480    0.00145
  0    26     10.24112    0.00000
  0    27     10.33526    0.00000

  1    24      8.41923    1.83734
  1    25      9.38480    0.00145
  1    26     10.24112    0.00000
  1    27     10.33525    0.00000


Fermi level: 8.66167

No gap
No difference between direct/indirect transitions

Forces in eV/Ang:
  0 W     0.00000    0.00000    7.72377
  1 W     0.00000    0.00000    7.72390
  2 Te    0.00000    0.00000    2.90172
  3 Te    0.00000    0.00000  -10.62917
  4 Te    0.00000    0.00000  -10.62913
  5 Te    0.00000   -0.00000    2.90170

System changes: positions 

Initializing position-dependent things.

Density initialized from wave functions
                  
                  
                  
                  
                  
       Te         
                  
                  
                  
                  
                  
                  
                  
         Te       
                  
                  
       W          
                  
                  
                  
                  
                  
                  
         W        
                  
                  
         Te       
                  
                  
                  
                  
                  
                  
                  
                  
                  
       Te         
                  
                  
                  
                  

Positions:
   0 W      1.773000    1.023642    3.759688    ( 0.0000,  0.0000,  0.0000)
   1 W      1.773000   -1.023642   10.819688    ( 0.0000,  0.0000,  0.0000)
   2 Te     1.773000    1.023642   12.475568    ( 0.0000,  0.0000,  0.0000)
   3 Te     1.773000   -1.023642   -5.645317    ( 0.0000,  0.0000,  0.0000)
   4 Te     1.773000    1.023642    1.414683    ( 0.0000,  0.0000,  0.0000)
   5 Te     1.773000   -1.023642   19.535568    ( 0.0000,  0.0000,  0.0000)

Unit cell:
           periodic     x           y           z      points  spacing
  1. axis:    yes    1.773000   -3.070926    0.000000    21     0.1462
  2. axis:    yes    1.773000    3.070926    0.000000    21     0.1462
  3. axis:    yes    0.000000    0.000000   14.120000    80     0.1765

  Lengths:   3.546000   3.546000  14.120000
  Angles:   90.000000  90.000000 120.000000

Effective grid spacing dv^(1/3) = 0.1633

     iter     time        total  log10-change:
                         energy   eigst   dens
iter:   1 12:50:58  -739.614122   -0.91
iter:   2 12:51:13  -739.490604   -2.33  -1.55
iter:   3 12:51:29  -739.317957   -2.21  -1.66
iter:   4 12:51:45  -739.306978   -3.54  -2.00
iter:   5 12:52:00  -739.295756c  -3.92  -2.06
iter:   6 12:52:15  -739.280489   -3.26  -2.14
iter:   7 12:52:30  -739.273713c  -3.58  -2.35
iter:   8 12:52:45  -739.273104c  -4.75  -2.60
iter:   9 12:52:59  -739.271285c  -4.19  -2.65
iter:  10 12:53:13  -739.270863c  -5.08  -2.98
iter:  11 12:53:28  -739.270817c  -5.84  -3.19
iter:  12 12:53:41  -739.270804c  -6.33  -3.21
iter:  13 12:53:55  -739.270830c  -6.03  -3.22
iter:  14 12:54:09  -739.270837c  -6.35  -3.30
iter:  15 12:54:24  -739.270823c  -6.31  -3.40
iter:  16 12:54:39  -739.270710c  -6.17  -3.50
iter:  17 12:54:54  -739.270691c  -7.11  -3.85
iter:  18 12:55:10  -739.270665c  -6.70  -3.92
iter:  19 12:55:25  -739.270659c  -7.75c -4.12c

Converged after 19 iterations.

Dipole moment: (-0.000000, 0.000015, -1.062105) |e|*Ang

Energy contributions relative to reference atoms: (reference = -1616751.480151)

Kinetic:       +127.587374
Potential:     -113.983515
External:        +0.000000
XC:            -752.280742
Entropy (-ST):   -0.156904
Local:           -0.515325
SIC:             +0.000000
--------------------------
Free energy:   -739.349111
Extrapolated:  -739.270659

Showing only first 2 kpts
 Kpt  Band  Eigenvalues  Occupancy
  0    24      8.35695    1.82749
  0    25      9.31946    0.00140
  0    26     10.06973    0.00000
  0    27     10.16856    0.00000

  1    24      8.35695    1.82749
  1    25      9.31946    0.00140
  1    26     10.06973    0.00000
  1    27     10.16856    0.00000


Fermi level: 8.59298

No gap
No difference between direct/indirect transitions

Forces in eV/Ang:
  0 W     0.00000    0.00000    2.85401
  1 W     0.00000    0.00000    2.85202
  2 Te    0.00000    0.00000    0.55287
  3 Te    0.00000    0.00000   -3.40274
  4 Te    0.00000    0.00000   -3.40404
  5 Te   -0.00000   -0.00000    0.55327

System changes: positions 

Initializing position-dependent things.

Density initialized from wave functions
                  
                  
                  
                  
                  
       Te         
                  
                  
                  
                  
                  
                  
         Te       
                  
                  
                  
       W          
                  
                  
                  
                  
                  
                  
         W        
                  
                  
         Te       
                  
                  
                  
                  
                  
                  
                  
                  
                  
       Te         
                  
                  
                  
                  

Positions:
   0 W      1.773000    1.023642    3.772529    ( 0.0000,  0.0000,  0.0000)
   1 W      1.773000   -1.023642   10.832529    ( 0.0000,  0.0000,  0.0000)
   2 Te     1.773000    1.023642   12.521653    ( 0.0000,  0.0000,  0.0000)
   3 Te     1.773000   -1.023642   -5.704215    ( 0.0000,  0.0000,  0.0000)
   4 Te     1.773000    1.023642    1.355785    ( 0.0000,  0.0000,  0.0000)
   5 Te     1.773000   -1.023642   19.581653    ( 0.0000,  0.0000,  0.0000)

Unit cell:
           periodic     x           y           z      points  spacing
  1. axis:    yes    1.773000   -3.070926    0.000000    21     0.1462
  2. axis:    yes    1.773000    3.070926    0.000000    21     0.1462
  3. axis:    yes    0.000000    0.000000   14.120000    80     0.1765

  Lengths:   3.546000   3.546000  14.120000
  Angles:   90.000000  90.000000 120.000000

Effective grid spacing dv^(1/3) = 0.1633

     iter     time        total  log10-change:
                         energy   eigst   dens
iter:   1 12:55:40  -739.670498   -1.69
iter:   2 12:55:55  -739.638656   -3.15  -1.85
iter:   3 12:56:09  -739.619041   -3.20  -1.96
iter:   4 12:56:23  -739.596188   -3.37  -2.06
iter:   5 12:56:38  -739.594422c  -4.65  -2.44
iter:   6 12:56:53  -739.591579c  -3.97  -2.51
iter:   7 12:57:07  -739.590105c  -4.30  -2.69
iter:   8 12:57:22  -739.590002c  -5.37  -2.97
iter:   9 12:57:36  -739.589849c  -5.09  -3.01
iter:  10 12:57:51  -739.589793c  -5.59  -3.30
iter:  11 12:58:06  -739.589777c  -6.59  -3.54
iter:  12 12:58:20  -739.589755c  -6.71  -3.56
iter:  13 12:58:35  -739.589748c  -6.90  -3.60
iter:  14 12:58:50  -739.589741c  -6.98  -3.66
iter:  15 12:59:04  -739.589716c  -6.58  -3.75
iter:  16 12:59:19  -739.589711c  -7.78c -4.02c

Converged after 16 iterations.

Dipole moment: (-0.000000, 0.000007, -1.292318) |e|*Ang

Energy contributions relative to reference atoms: (reference = -1616751.480151)

Kinetic:       +107.477288
Potential:      -96.159284
External:        +0.000000
XC:            -750.259180
Entropy (-ST):   -0.178210
Local:           -0.559429
SIC:             +0.000000
--------------------------
Free energy:   -739.678816
Extrapolated:  -739.589711

Showing only first 2 kpts
 Kpt  Band  Eigenvalues  Occupancy
  0    24      8.37763    1.77664
  0    25      9.33424    0.00111
  0    26      9.97989    0.00000
  0    27     10.07759    0.00000

  1    24      8.37762    1.77664
  1    25      9.33424    0.00111
  1    26      9.97989    0.00000
  1    27     10.07759    0.00000


Fermi level: 8.58499

No gap
No difference between direct/indirect transitions

Forces in eV/Ang:
  0 W     0.00000   -0.00000    1.61203
  1 W     0.00000   -0.00000    1.61094
  2 Te   -0.00000    0.00000   -0.37117
  3 Te   -0.00000    0.00000   -1.22318
  4 Te    0.00000    0.00000   -1.22371
  5 Te    0.00000    0.00000   -0.37125

System changes: positions 

Initializing position-dependent things.

Density initialized from wave functions
                  
                  
                  
                  
                  
       Te         
                  
                  
                  
                  
                  
                  
         Te       
                  
                  
                  
       W          
                  
                  
                  
                  
                  
                  
         W        
                  
                  
         Te       
                  
                  
                  
                  
                  
                  
                  
                  
                  
       Te         
                  
                  
                  
                  

Positions:
   0 W      1.773000    1.023642    3.785592    ( 0.0000,  0.0000,  0.0000)
   1 W      1.773000   -1.023642   10.845592    ( 0.0000,  0.0000,  0.0000)
   2 Te     1.773000    1.023642   12.531856    ( 0.0000,  0.0000,  0.0000)
   3 Te     1.773000   -1.023642   -5.727148    ( 0.0000,  0.0000,  0.0000)
   4 Te     1.773000    1.023642    1.332852    ( 0.0000,  0.0000,  0.0000)
   5 Te     1.773000   -1.023642   19.591856    ( 0.0000,  0.0000,  0.0000)

Unit cell:
           periodic     x           y           z      points  spacing
  1. axis:    yes    1.773000   -3.070926    0.000000    21     0.1462
  2. axis:    yes    1.773000    3.070926    0.000000    21     0.1462
  3. axis:    yes    0.000000    0.000000   14.120000    80     0.1765

  Lengths:   3.546000   3.546000  14.120000
  Angles:   90.000000  90.000000 120.000000

Effective grid spacing dv^(1/3) = 0.1633

     iter     time        total  log10-change:
                         energy   eigst   dens
iter:   1 12:59:36  -739.693820   -2.25
iter:   2 12:59:50  -739.670692   -3.66  -1.95
iter:   3 13:00:04  -739.654977   -3.31  -2.09
iter:   4 13:00:18  -739.645972c  -3.96  -2.26
iter:   5 13:00:33  -739.645428c  -4.64  -2.71
iter:   6 13:00:48  -739.644949c  -4.84  -2.85
iter:   7 13:01:02  -739.644358c  -5.04  -2.93
iter:   8 13:01:16  -739.644282c  -5.70  -3.30
iter:   9 13:01:31  -739.644278c  -6.50  -3.37
iter:  10 13:01:46  -739.644272c  -5.87  -3.44
iter:  11 13:02:01  -739.644265c  -6.54  -3.68
iter:  12 13:02:15  -739.644250c  -7.33  -3.91
iter:  13 13:02:29  -739.644239c  -7.47c -3.96
iter:  14 13:02:44  -739.644229c  -7.26  -4.05c
iter:  15 13:02:59  -739.644223c  -7.79c -4.34c

Converged after 15 iterations.

Dipole moment: (-0.000000, -0.000005, -1.427929) |e|*Ang

Energy contributions relative to reference atoms: (reference = -1616751.480151)

Kinetic:       +101.643614
Potential:      -90.958301
External:        +0.000000
XC:            -749.695581
Entropy (-ST):   -0.191524
Local:           -0.538193
SIC:             +0.000000
--------------------------
Free energy:   -739.739985
Extrapolated:  -739.644223

Showing only first 2 kpts
 Kpt  Band  Eigenvalues  Occupancy
  0    24      8.41627    1.68472
  0    25      9.37256    0.00075
  0    26      9.95433    0.00000
  0    27     10.05050    0.00000

  1    24      8.41627    1.68472
  1    25      9.37256    0.00075
  1    26      9.95433    0.00000
  1    27     10.05050    0.00000


Fermi level: 8.58386

No gap
No difference between direct/indirect transitions

Forces in eV/Ang:
  0 W     0.00000    0.00000    0.99065
  1 W     0.00000   -0.00000    0.99070
  2 Te    0.00000    0.00000   -0.56090
  3 Te   -0.00000   -0.00000   -0.42190
  4 Te   -0.00000   -0.00000   -0.42182
  5 Te    0.00000   -0.00000   -0.56106

System changes: positions 

Initializing position-dependent things.

Density initialized from wave functions
                  
                  
                  
                  
                  
       Te         
                  
                  
                  
                  
                  
                  
         Te       
                  
                  
                  
       W          
                  
                  
                  
                  
                  
                  
         W        
                  
                  
         Te       
                  
                  
                  
                  
                  
                  
                  
                  
                  
       Te         
                  
                  
                  
                  

Positions:
   0 W      1.773000    1.023642    3.800439    ( 0.0000,  0.0000,  0.0000)
   1 W      1.773000   -1.023642   10.860439    ( 0.0000,  0.0000,  0.0000)
   2 Te     1.773000    1.023642   12.527825    ( 0.0000,  0.0000,  0.0000)
   3 Te     1.773000   -1.023642   -5.737678    ( 0.0000,  0.0000,  0.0000)
   4 Te     1.773000    1.023642    1.322322    ( 0.0000,  0.0000,  0.0000)
   5 Te     1.773000   -1.023642   19.587825    ( 0.0000,  0.0000,  0.0000)

Unit cell:
           periodic     x           y           z      points  spacing
  1. axis:    yes    1.773000   -3.070926    0.000000    21     0.1462
  2. axis:    yes    1.773000    3.070926    0.000000    21     0.1462
  3. axis:    yes    0.000000    0.000000   14.120000    80     0.1765

  Lengths:   3.546000   3.546000  14.120000
  Angles:   90.000000  90.000000 120.000000

Effective grid spacing dv^(1/3) = 0.1633

     iter     time        total  log10-change:
                         energy   eigst   dens
iter:   1 13:03:14  -739.724933   -2.31
iter:   2 13:03:28  -739.697051   -3.72  -1.93
iter:   3 13:03:42  -739.671981   -3.24  -2.09
iter:   4 13:03:56  -739.671857c  -4.08  -2.57
iter:   5 13:04:11  -739.670174c  -4.63  -2.59
iter:   6 13:04:25  -739.669855c  -5.20  -2.95
iter:   7 13:04:40  -739.669445c  -5.19  -3.02
iter:   8 13:04:54  -739.669427c  -5.99  -3.47
iter:   9 13:05:08  -739.669416c  -6.61  -3.52
iter:  10 13:05:22  -739.669381c  -6.19  -3.61
iter:  11 13:05:36  -739.669371c  -6.58  -3.66
iter:  12 13:05:50  -739.669364c  -7.45c -4.08c

Converged after 12 iterations.

Dipole moment: (-0.000000, -0.000014, -1.525829) |e|*Ang

Energy contributions relative to reference atoms: (reference = -1616751.480151)

Kinetic:       +100.049954
Potential:      -89.477511
External:        +0.000000
XC:            -749.604686
Entropy (-ST):   -0.201307
Local:           -0.536466
SIC:             +0.000000
--------------------------
Free energy:   -739.770017
Extrapolated:  -739.669364

Showing only first 2 kpts
 Kpt  Band  Eigenvalues  Occupancy
  0    24      8.46450    1.52505
  0    25      9.42329    0.00044
  0    26      9.95837    0.00000
  0    27     10.05340    0.00000

  1    24      8.46450    1.52505
  1    25      9.42329    0.00044
  1    26      9.95837    0.00000
  1    27     10.05340    0.00000


Fermi level: 8.58116

No gap
No difference between direct/indirect transitions

Forces in eV/Ang:
  0 W     0.00000    0.00000    0.46942
  1 W    -0.00000    0.00000    0.46941
  2 Te    0.00000   -0.00000   -0.42882
  3 Te    0.00000    0.00000   -0.04004
  4 Te   -0.00000    0.00000   -0.04005
  5 Te    0.00000    0.00000   -0.42880

System changes: positions 

Initializing position-dependent things.

Density initialized from wave functions
                  
                  
                  
                  
                  
       Te         
                  
                  
                  
                  
                  
                  
         Te       
                  
                  
                  
       W          
                  
                  
                  
                  
                  
                  
         W        
                  
                  
         Te       
                  
                  
                  
                  
                  
                  
                  
                  
                  
       Te         
                  
                  
                  
                  

Positions:
   0 W      1.773000    1.023642    3.813580    ( 0.0000,  0.0000,  0.0000)
   1 W      1.773000   -1.023642   10.873580    ( 0.0000,  0.0000,  0.0000)
   2 Te     1.773000    1.023642   12.517068    ( 0.0000,  0.0000,  0.0000)
   3 Te     1.773000   -1.023642   -5.739900    ( 0.0000,  0.0000,  0.0000)
   4 Te     1.773000    1.023642    1.320100    ( 0.0000,  0.0000,  0.0000)
   5 Te     1.773000   -1.023642   19.577068    ( 0.0000,  0.0000,  0.0000)

Unit cell:
           periodic     x           y           z      points  spacing
  1. axis:    yes    1.773000   -3.070926    0.000000    21     0.1462
  2. axis:    yes    1.773000    3.070926    0.000000    21     0.1462
  3. axis:    yes    0.000000    0.000000   14.120000    80     0.1765

  Lengths:   3.546000   3.546000  14.120000
  Angles:   90.000000  90.000000 120.000000

Effective grid spacing dv^(1/3) = 0.1633

     iter     time        total  log10-change:
                         energy   eigst   dens
iter:   1 13:06:05  -739.722011   -2.42
iter:   2 13:06:19  -739.699598   -3.82  -1.99
iter:   3 13:06:33  -739.682024   -3.44  -2.15
iter:   4 13:06:47  -739.681124c  -4.31  -2.55
iter:   5 13:07:01  -739.679417c  -4.30  -2.61
iter:   6 13:07:16  -739.679134c  -5.00  -3.03
iter:   7 13:07:30  -739.678913c  -5.19  -3.08
iter:   8 13:07:45  -739.678895c  -5.87  -3.49
iter:   9 13:08:00  -739.678879c  -6.76  -3.57
iter:  10 13:08:14  -739.678855c  -6.69  -3.62
iter:  11 13:08:29  -739.678804c  -6.33  -3.64
iter:  12 13:08:43  -739.678794c  -6.96  -4.08c
iter:  13 13:08:57  -739.678793c  -7.72c -4.15c

Converged after 13 iterations.

Dipole moment: (-0.000000, 0.000012, -1.581682) |e|*Ang

Energy contributions relative to reference atoms: (reference = -1616751.480151)

Kinetic:       +100.898335
Potential:      -90.162566
External:        +0.000000
XC:            -749.772609
Entropy (-ST):   -0.207401
Local:           -0.538254
SIC:             +0.000000
--------------------------
Free energy:   -739.782494
Extrapolated:  -739.678793

Showing only first 2 kpts
 Kpt  Band  Eigenvalues  Occupancy
  0    24      8.51200    1.31532
  0    25      9.47444    0.00025
  0    26      9.97732    0.00000
  0    27     10.07178    0.00000

  1    24      8.51200    1.31531
  1    25      9.47444    0.00025
  1    26      9.97732    0.00000
  1    27     10.07178    0.00000


Fermi level: 8.57729

No gap
No difference between direct/indirect transitions

Forces in eV/Ang:
  0 W     0.00000    0.00000    0.04267
  1 W     0.00000    0.00000    0.04194
  2 Te    0.00000    0.00000   -0.14621
  3 Te    0.00000    0.00000    0.11088
  4 Te    0.00000    0.00000    0.11092
  5 Te    0.00000    0.00000   -0.14583

System changes: positions 

Initializing position-dependent things.

Density initialized from wave functions
                  
                  
                  
                  
                  
       Te         
                  
                  
                  
                  
                  
                  
         Te       
                  
                  
                  
       W          
                  
                  
                  
                  
                  
                  
         W        
                  
                  
         Te       
                  
                  
                  
                  
                  
                  
                  
                  
                  
       Te         
                  
                  
                  
                  

Positions:
   0 W      1.773000    1.023642    3.815750    ( 0.0000,  0.0000,  0.0000)
   1 W      1.773000   -1.023642   10.875750    ( 0.0000,  0.0000,  0.0000)
   2 Te     1.773000    1.023642   12.512155    ( 0.0000,  0.0000,  0.0000)
   3 Te     1.773000   -1.023642   -5.737010    ( 0.0000,  0.0000,  0.0000)
   4 Te     1.773000    1.023642    1.322990    ( 0.0000,  0.0000,  0.0000)
   5 Te     1.773000   -1.023642   19.572155    ( 0.0000,  0.0000,  0.0000)

Unit cell:
           periodic     x           y           z      points  spacing
  1. axis:    yes    1.773000   -3.070926    0.000000    21     0.1462
  2. axis:    yes    1.773000    3.070926    0.000000    21     0.1462
  3. axis:    yes    0.000000    0.000000   14.120000    80     0.1765

  Lengths:   3.546000   3.546000  14.120000
  Angles:   90.000000  90.000000 120.000000

Effective grid spacing dv^(1/3) = 0.1633

     iter     time        total  log10-change:
                         energy   eigst   dens
iter:   1 13:09:12  -739.681699   -3.70
iter:   2 13:09:26  -739.680822   -5.14  -2.73
iter:   3 13:09:40  -739.680221c  -5.10  -2.92
iter:   4 13:09:54  -739.680187c  -5.84  -3.24
iter:   5 13:10:08  -739.680127c  -5.53  -3.28
iter:   6 13:10:22  -739.680110c  -6.33  -3.59
iter:   7 13:10:36  -739.680113c  -6.26  -3.66
iter:   8 13:10:50  -739.680117c  -6.92  -4.03c
iter:   9 13:11:04  -739.680116c  -8.12c -4.13c

Converged after 9 iterations.

Dipole moment: (-0.000000, 0.000001, -1.574108) |e|*Ang

Energy contributions relative to reference atoms: (reference = -1616751.480151)

Kinetic:       +102.022802
Potential:      -91.137861
External:        +0.000000
XC:            -749.906179
Entropy (-ST):   -0.207397
Local:           -0.555179
SIC:             +0.000000
--------------------------
Free energy:   -739.783814
Extrapolated:  -739.680116

Showing only first 2 kpts
 Kpt  Band  Eigenvalues  Occupancy
  0    24      8.52250    1.26004
  0    25      9.48551    0.00022
  0    26      9.98710    0.00000
  0    27     10.08158    0.00000

  1    24      8.52250    1.26004
  1    25      9.48551    0.00022
  1    26      9.98710    0.00000
  1    27     10.08158    0.00000


Fermi level: 8.57573

No gap
No difference between direct/indirect transitions

Forces in eV/Ang:
  0 W     0.00000    0.00000   -0.02786
  1 W    -0.00000    0.00000   -0.02801
  2 Te    0.00000    0.00000   -0.02389
  3 Te    0.00000    0.00000    0.04088
  4 Te    0.00000    0.00000    0.04108
  5 Te    0.00000    0.00000   -0.02363

Timing:                                      incl.     excl.
-------------------------------------------------------------------
Density initialized from wave functions:     6.694     6.678   0.2% |
 Symmetrize density:                         0.017     0.017   0.0% |
Forces:                                      7.936     7.936   0.3% |
Hamiltonian:                                 9.431     0.009   0.0% |
 Atomic:                                     1.317     0.005   0.0% |
  XC Correction:                             1.312     1.312   0.0% |
 Calculate atomic Hamiltonians:              0.086     0.086   0.0% |
 Communicate:                                0.000     0.000   0.0% |
 Initialize Hamiltonian:                     0.000     0.000   0.0% |
 Poisson:                                    0.007     0.007   0.0% |
 XC 3D grid:                                 8.011     1.168   0.0% |
  VdW-DF integral:                           6.843     0.286   0.0% |
   Convolution:                              1.109     1.109   0.0% |
   FFT:                                      0.541     0.541   0.0% |
   gather:                                   0.004     0.004   0.0% |
   hmm1:                                     0.021     0.021   0.0% |
   hmm2:                                     1.048     1.048   0.0% |
   iFFT:                                     0.594     0.594   0.0% |
   potential:                                1.532     0.011   0.0% |
    collect:                                 0.000     0.000   0.0% |
    p1:                                      0.152     0.152   0.0% |
    p2:                                      1.369     1.369   0.1% |
    sum:                                     0.000     0.000   0.0% |
   splines:                                  1.708     1.708   0.1% |
LCAO initialization:                        13.363     0.054   0.0% |
 LCAO eigensolver:                           3.728     0.011   0.0% |
  Calculate projections:                     0.006     0.006   0.0% |
  DenseAtomicCorrection:                     0.022     0.022   0.0% |
  Distribute overlap matrix:                 0.003     0.003   0.0% |
  Orbital Layouts:                           2.048     2.048   0.1% |
  Potential matrix:                          0.237     0.237   0.0% |
  Sum over cells:                            1.401     1.401   0.1% |
 LCAO to grid:                               9.242     9.242   0.3% |
 Set positions (LCAO WFS):                   0.340     0.050   0.0% |
  Basic WFS set positions:                   0.000     0.000   0.0% |
  Basis functions set positions:             0.000     0.000   0.0% |
  P tci:                                     0.176     0.176   0.0% |
  ST tci:                                    0.109     0.109   0.0% |
  mktci:                                     0.004     0.004   0.0% |
PWDescriptor:                                0.043     0.043   0.0% |
Redistribute:                                0.047     0.047   0.0% |
SCF-cycle:                                2324.142     2.022   0.1% |
 Davidson:                                2064.868   219.788   8.2% |--|
  Apply H:                                 363.612   358.647  13.4% |----|
   HMM T:                                    4.965     4.965   0.2% |
  Subspace diag:                           413.250     0.673   0.0% |
   calc_h_matrix:                          382.738    17.504   0.7% |
    Apply H:                               365.233   359.935  13.4% |----|
     HMM T:                                  5.299     5.299   0.2% |
   diagonalize:                              3.287     3.287   0.1% |
   rotate_psi:                              26.552    26.552   1.0% |
  calc. matrices:                          706.160    93.940   3.5% ||
   Apply H:                                612.220   600.803  22.4% |--------|
    HMM T:                                  11.417    11.417   0.4% |
  diagonalize:                             315.223   315.223  11.7% |----|
  rotate_psi:                               46.835    46.835   1.7% ||
 Density:                                  132.283     0.002   0.0% |
  Atomic density matrices:                   0.608     0.608   0.0% |
  Mix:                                      14.963    14.963   0.6% |
  Multipole moments:                         0.013     0.013   0.0% |
  Pseudo density:                          116.698   116.407   4.3% |-|
   Symmetrize density:                       0.290     0.290   0.0% |
 Hamiltonian:                              120.910     0.154   0.0% |
  Atomic:                                   19.959     0.074   0.0% |
   XC Correction:                           19.885    19.885   0.7% |
  Calculate atomic Hamiltonians:             1.202     1.202   0.0% |
  Communicate:                               0.001     0.001   0.0% |
  Poisson:                                   0.109     0.109   0.0% |
  XC 3D grid:                               99.485    19.415   0.7% |
   VdW-DF integral:                         80.070     5.514   0.2% |
    Convolution:                            18.391    18.391   0.7% |
    FFT:                                     7.100     7.100   0.3% |
    gather:                                  0.060     0.060   0.0% |
    hmm1:                                    0.261     0.261   0.0% |
    hmm2:                                   15.206    15.206   0.6% |
    iFFT:                                    9.545     9.545   0.4% |
    potential:                              23.993     0.190   0.0% |
     collect:                                0.000     0.000   0.0% |
     p1:                                     2.267     2.267   0.1% |
     p2:                                    21.535    21.535   0.8% |
     sum:                                    0.001     0.001   0.0% |
    splines:                                 0.000     0.000   0.0% |
 Orthonormalize:                             4.060     0.039   0.0% |
  calc_s_matrix:                             0.542     0.542   0.0% |
  inverse-cholesky:                          0.065     0.065   0.0% |
  projections:                               2.583     2.583   0.1% |
  rotate_psi_s:                              0.832     0.832   0.0% |
Set symmetry:                                0.005     0.005   0.0% |
Other:                                     321.565   321.565  12.0% |----|
-------------------------------------------------------------------
Total:                                              2683.226 100.0%

Memory usage: 972.59 MiB
Date: Tue Apr  8 13:16:23 2025
