
  ___ ___ ___ _ _ _  
 |   |   |_  | | | | 
 | | | | | . | | | | 
 |__ |  _|___|_____|  25.1.0
 |___|_|             

User:   georgios-vourvachakis@georgios-vourvachakis-82K2
Date:   Tue Apr  8 13:11:05 2025
Arch:   x86_64
Pid:    24499
CWD:    /home/georgios-vourvachakis/Desktop/DFT_codes
Python: 3.12.3
gpaw:   /home/georgios-vourvachakis/Desktop/DFT_codes/.venv/lib/python3.12/site-packages/gpaw
_gpaw:  /home/georgios-vourvachakis/Desktop/DFT_codes/.venv/lib/python3.12/site-packages/
        _gpaw.cpython-312-x86_64-linux-gnu.so
ase:    /home/georgios-vourvachakis/Desktop/DFT_codes/.venv/lib/python3.12/site-packages/ase (version 3.24.0)
numpy:  /home/georgios-vourvachakis/Desktop/DFT_codes/.venv/lib/python3.12/site-packages/numpy (version 2.2.3)
scipy:  /home/georgios-vourvachakis/Desktop/DFT_codes/.venv/lib/python3.12/site-packages/scipy (version 1.15.1)
libxc:  5.2.3
units:  Angstrom and eV
cores: 1
OpenMP: False
OMP_NUM_THREADS: 1

Input parameters:
  kpts: [10 10  2]
  mode: {ecut: 600.0,
         name: pw}
  xc: vdW-DF2

System changes: positions, numbers, cell, pbc, initial_charges, initial_magmoms 

Initialize ...

species:
  W:
    name: Tungsten
    id: c5cdf39eb2772a6eef4e39aea6cd5c6f
    Z: 74.0
    valence: 14
    core: 60
    charge: 0.0
    file: /home/georgios-vourvachakis/Desktop/DFT_codes/gpaw_datasets/gpaw-setups-0.9.20000/W.revPBE.gz
    compensation charges: {type: gauss,
                           rc: 0.40,
                           lmax: 2}
    cutoffs: {filter: 2.36,
              core: 3.02}
    projectors:
      #              energy  rcut
      - 5s(2.00)   -78.785   1.344
      - 6s(2.00)    -5.639   1.344
      - 5p(6.00)   -43.193   1.355
      - 6p(0.00)    -1.336   1.355
      - 5d(4.00)    -4.444   1.228
      -  d          22.768   1.228
  
    # Using partial waves for W as LCAO basis

  Te:
    name: Tellurium
    id: cecded85d882fd4df90837008c85fd5a
    Z: 52.0
    valence: 6
    core: 46
    charge: 0.0
    file: /home/georgios-vourvachakis/Desktop/DFT_codes/gpaw_datasets/gpaw-setups-0.9.20000/Te.revPBE.gz
    compensation charges: {type: gauss,
                           rc: 0.36,
                           lmax: 2}
    cutoffs: {filter: 2.09,
              core: 3.17}
    projectors:
      #              energy  rcut
      - 5s(2.00)   -15.027   1.180
      - 5p(4.00)    -5.913   1.196
      -  s          12.185   1.180
      -  p          21.299   1.196
      -  d           0.000   1.238
  
    # Using partial waves for Te as LCAO basis

Reference energy: -1616751.480151  # eV

Spin-paired calculation

Convergence criteria:
 Maximum [total energy] change in last 3 cyles: 0.0005 eV / valence electron
 Maximum integral of absolute [dens]ity change: 0.0001 electrons / valence electron
 Maximum integral of absolute [eigenst]ate change: 4e-08 eV^2 / valence electron
 Maximum number of scf [iter]ations: 333
 (Square brackets indicate name in SCF output, whereas a 'c' in
 the SCF output indicates the quantity has converged.)

Symmetries present (total): 6

  ( 1  1  0)  ( 1  0  0)  ( 0  1  0)  ( 0 -1  0)  (-1  0  0)  (-1 -1  0)
  ( 0 -1  0)  ( 0  1  0)  (-1 -1  0)  (-1  0  0)  ( 1  1  0)  ( 1  0  0)
  ( 0  0  1)  ( 0  0  1)  ( 0  0  1)  ( 0  0  1)  ( 0  0  1)  ( 0  0  1)
Note: your k-points are not as symmetric as your crystal!

200 k-points: 10 x 10 x 2 Monkhorst-Pack grid
55 k-points in the irreducible part of the Brillouin zone
       k-points in crystal coordinates                weights
   0:     0.05000000   -0.05000000   -0.25000000          2/200
   1:     0.05000000   -0.05000000    0.25000000          2/200
   2:     0.05000000    0.05000000    0.25000000          4/200
   3:     0.15000000   -0.15000000   -0.25000000          2/200
   4:     0.15000000   -0.15000000    0.25000000          2/200
   5:     0.15000000   -0.05000000   -0.25000000          4/200
   6:     0.15000000   -0.05000000    0.25000000          4/200
   7:     0.15000000    0.05000000   -0.25000000          4/200
   8:     0.15000000    0.05000000    0.25000000          4/200
   9:     0.15000000    0.15000000    0.25000000          4/200
          ...
  54:     0.45000000    0.45000000    0.25000000          4/200

Wave functions: Plane wave expansion
  Cutoff energy: 600.000 eV
  Number of coefficients (min, max): 5103, 5176
  Pulay-stress correction: 0.000000 eV/Ang^3 (de/decut=0.000000)
  Using Numpy's FFT
  ScaLapack parameters: grid=1x1, blocksize=None
  Wavefunction extrapolation:
    Improved wavefunction reuse through dual PAW basis 

Occupation numbers: Fermi-Dirac:
  width: 0.1000  # eV
 

Eigensolver
   Davidson(niter=2) 

Densities:
  Coarse grid: 21*21*81 grid
  Fine grid: 42*42*162 grid
  Total Charge: 0.000000 

Density mixing:
  Method: separate
  Backend: pulay
  Linear mixing parameter: 0.05
  old densities: 5
  Damping of long wavelength oscillations: 50 

Hamiltonian:
  XC and Coulomb potentials evaluated on a 42*42*162 grid
  Using the vdW-DF2 Exchange-Correlation functional
  External potential:
    NoExternalPotential
 

XC parameters: vdW-DF2 with 2 nearest neighbor stencil

Memory estimate:
  Process memory now: 965.48 MiB
  Calculator: 232.81 MiB
    Density: 16.62 MiB
      Arrays: 7.09 MiB
      Localized functions: 6.81 MiB
      Mixer: 2.73 MiB
    Hamiltonian: 4.80 MiB
      Arrays: 4.63 MiB
      XC: 0.00 MiB
      Poisson: 0.00 MiB
      vbar: 0.17 MiB
    Wavefunctions: 211.38 MiB
      Arrays psit_nG: 156.38 MiB
      Eigensolver: 3.44 MiB
      Projections: 2.66 MiB
      Projectors: 43.20 MiB
      PW-descriptor: 5.71 MiB

Total number of cores used: 1

Number of atoms: 6
Number of atomic orbitals: 42
Number of bands in calculation: 36
Number of valence electrons: 52
Bands to converge: occupied

... initialized

Initializing position-dependent things.

Density initialized from atomic densities
Creating initial wave functions:
  36 bands from LCAO basis set

                  
                  
                  
                  
                  
       Te         
                  
                  
                  
                  
                  
                  
         Te       
                  
                  
                  
       W          
                  
                  
                  
                  
                  
                  
         W        
                  
         Te       
                  
                  
                  
                  
                  
                  
                  
                  
                  
       Te         
                  
                  
                  
                  

Positions:
   0 W      1.773000    1.023642    3.542500    ( 0.0000,  0.0000,  0.0000)
   1 W      1.773000   -1.023642   10.627500    ( 0.0000,  0.0000,  0.0000)
   2 Te     1.773000    1.023642   12.327900    ( 0.0000,  0.0000,  0.0000)
   3 Te     1.773000   -1.023642   -5.242900    ( 0.0000,  0.0000,  0.0000)
   4 Te     1.773000    1.023642    1.842100    ( 0.0000,  0.0000,  0.0000)
   5 Te     1.773000   -1.023642   19.412900    ( 0.0000,  0.0000,  0.0000)

Unit cell:
           periodic     x           y           z      points  spacing
  1. axis:    yes    1.773000   -3.070926    0.000000    21     0.1462
  2. axis:    yes    1.773000    3.070926    0.000000    21     0.1462
  3. axis:    yes    0.000000    0.000000   14.170000    81     0.1749

  Lengths:   3.546000   3.546000  14.170000
  Angles:   90.000000  90.000000 120.000000

Effective grid spacing dv^(1/3) = 0.1629

     iter     time        total  log10-change:
                         energy   eigst   dens
iter:   1 13:11:31  -707.691401
iter:   2 13:11:46  -705.642644   -0.68  -0.96
iter:   3 13:12:02  -704.142784   -1.24  -1.11
iter:   4 13:12:17  -703.067156   -1.55  -1.23
iter:   5 13:12:32  -702.659148   -1.66  -1.41
iter:   6 13:12:48  -702.651511   -2.48  -1.80
iter:   7 13:13:03  -702.656123c  -3.08  -1.89
iter:   8 13:13:18  -702.671002c  -2.48  -1.94
iter:   9 13:13:33  -702.668074c  -3.17  -2.29
iter:  10 13:13:47  -702.668964c  -3.83  -2.55
iter:  11 13:14:01  -702.667438c  -4.09  -2.59
iter:  12 13:14:15  -702.667695c  -4.53  -2.79
iter:  13 13:14:30  -702.667297c  -4.47  -2.92
iter:  14 13:14:46  -702.667332c  -5.04  -3.11
iter:  15 13:15:00  -702.667270c  -5.88  -3.32
iter:  16 13:15:14  -702.667256c  -5.96  -3.37
iter:  17 13:15:28  -702.667280c  -6.61  -3.65
iter:  18 13:15:41  -702.667271c  -6.57  -3.78
iter:  19 13:15:55  -702.667262c  -7.55c -3.94
iter:  20 13:16:09  -702.667235c  -7.15  -3.98
iter:  21 13:16:23  -702.667237c  -7.51c -4.12c

Converged after 21 iterations.

Dipole moment: (-0.000000, -0.000001, -0.172133) |e|*Ang

Energy contributions relative to reference atoms: (reference = -1616751.480151)

Kinetic:       +537.767725
Potential:     -455.309725
External:        +0.000000
XC:            -783.250242
Entropy (-ST):   -0.072445
Local:           -1.838772
SIC:             +0.000000
--------------------------
Free energy:   -702.703459
Extrapolated:  -702.667237

Showing only first 2 kpts
 Kpt  Band  Eigenvalues  Occupancy
  0    24      7.53126    1.99999
  0    25      8.58363    1.79089
  0    26     10.21078    0.00000
  0    27     10.32178    0.00000

  1    24      7.53126    1.99999
  1    25      8.58363    1.79089
  1    26     10.21078    0.00000
  1    27     10.32178    0.00000


Fermi level: 8.79839

No gap
No difference between direct/indirect transitions

Forces in eV/Ang:
  0 W     0.00000    0.00000   75.41004
  1 W    -0.00000    0.00000   75.41006
  2 Te   -0.00000    0.00000    2.66589
  3 Te    0.00000    0.00000  -78.08484
  4 Te    0.00000    0.00000  -78.08486
  5 Te    0.00000   -0.00000    2.66589

System changes: positions 

Initializing position-dependent things.

Density initialized from wave functions
                  
                  
                  
                  
                  
       Te         
                  
                  
                  
                  
                  
                  
         Te       
                  
                  
                  
       W          
                  
                  
                  
                  
                  
                  
         W        
                  
         Te       
                  
                  
                  
                  
                  
                  
                  
                  
                  
       Te         
                  
                  
                  
                  

Positions:
   0 W      1.773000    1.023642    3.735649    ( 0.0000,  0.0000,  0.0000)
   1 W      1.773000   -1.023642   10.820649    ( 0.0000,  0.0000,  0.0000)
   2 Te     1.773000    1.023642   12.334728    ( 0.0000,  0.0000,  0.0000)
   3 Te     1.773000   -1.023642   -5.442900    ( 0.0000,  0.0000,  0.0000)
   4 Te     1.773000    1.023642    1.642100    ( 0.0000,  0.0000,  0.0000)
   5 Te     1.773000   -1.023642   19.419728    ( 0.0000,  0.0000,  0.0000)

Unit cell:
           periodic     x           y           z      points  spacing
  1. axis:    yes    1.773000   -3.070926    0.000000    21     0.1462
  2. axis:    yes    1.773000    3.070926    0.000000    21     0.1462
  3. axis:    yes    0.000000    0.000000   14.170000    81     0.1749

  Lengths:   3.546000   3.546000  14.170000
  Angles:   90.000000  90.000000 120.000000

Effective grid spacing dv^(1/3) = 0.1629

     iter     time        total  log10-change:
                         energy   eigst   dens
iter:   1 13:16:39  -754.446984   +0.48
iter:   2 13:16:52  -745.898300   -0.88  -0.70
iter:   3 13:17:06  -734.785931   -0.18  -0.82
iter:   4 13:17:20  -734.706492   -1.92  -1.43
iter:   5 13:17:35  -734.565663   -2.33  -1.52
iter:   6 13:17:48  -734.128340   -1.58  -1.60
iter:   7 13:18:00  -734.116530   -3.22  -1.97
iter:   8 13:18:13  -734.097689   -3.08  -2.01
iter:   9 13:18:26  -734.067649   -2.84  -2.12
iter:  10 13:18:39  -734.050059   -3.36  -2.16
iter:  11 13:18:53  -734.046928c  -3.57  -2.43
iter:  12 13:19:06  -734.046560c  -4.29  -2.66
iter:  13 13:19:19  -734.046134c  -5.24  -2.74
iter:  14 13:19:31  -734.045682c  -4.41  -2.78
iter:  15 13:19:44  -734.045927c  -4.99  -2.99
iter:  16 13:19:57  -734.045937c  -5.79  -3.07
iter:  17 13:20:10  -734.045926c  -6.21  -3.07
iter:  18 13:20:23  -734.045443c  -5.40  -3.09
iter:  19 13:20:36  -734.045416c  -6.06  -3.56
iter:  20 13:20:49  -734.045419c  -6.36  -3.72
iter:  21 13:21:02  -734.045429c  -7.14  -3.89
iter:  22 13:21:14  -734.045435c  -7.30  -3.93
iter:  23 13:21:27  -734.045439c  -7.37  -3.99
iter:  24 13:21:40  -734.045444c  -8.04c -4.03c

Converged after 24 iterations.

Dipole moment: (-0.000000, -0.000014, -0.547249) |e|*Ang

Energy contributions relative to reference atoms: (reference = -1616751.480151)

Kinetic:       +243.942950
Potential:     -214.274915
External:        +0.000000
XC:            -762.991166
Entropy (-ST):   -0.127493
Local:           -0.658566
SIC:             +0.000000
--------------------------
Free energy:   -734.109190
Extrapolated:  -734.045444

Showing only first 2 kpts
 Kpt  Band  Eigenvalues  Occupancy
  0    24      8.37645    1.89956
  0    25      9.32150    0.00297
  0    26     10.26702    0.00000
  0    27     10.35949    0.00000

  1    24      8.37645    1.89956
  1    25      9.32150    0.00297
  1    26     10.26702    0.00000
  1    27     10.35949    0.00000


Fermi level: 8.67043

No gap
No difference between direct/indirect transitions

Forces in eV/Ang:
  0 W     0.00000    0.00000   12.98332
  1 W     0.00000    0.00000   12.98441
  2 Te    0.00000    0.00000    3.93267
  3 Te    0.00000   -0.00000  -16.92876
  4 Te    0.00000    0.00000  -16.92787
  5 Te    0.00000    0.00000    3.93176

System changes: positions 

Initializing position-dependent things.

Density initialized from wave functions
                  
                  
                  
                  
                  
       Te         
                  
                  
                  
                  
                  
                  
                  
         Te       
                  
                  
       W          
                  
                  
                  
                  
                  
                  
         W        
                  
                  
         Te       
                  
                  
                  
                  
                  
                  
                  
                  
                  
       Te         
                  
                  
                  
                  

Positions:
   0 W      1.773000    1.023642    3.753250    ( 0.0000,  0.0000,  0.0000)
   1 W      1.773000   -1.023642   10.838250    ( 0.0000,  0.0000,  0.0000)
   2 Te     1.773000    1.023642   12.397066    ( 0.0000,  0.0000,  0.0000)
   3 Te     1.773000   -1.023642   -5.523031    ( 0.0000,  0.0000,  0.0000)
   4 Te     1.773000    1.023642    1.561969    ( 0.0000,  0.0000,  0.0000)
   5 Te     1.773000   -1.023642   19.482066    ( 0.0000,  0.0000,  0.0000)

Unit cell:
           periodic     x           y           z      points  spacing
  1. axis:    yes    1.773000   -3.070926    0.000000    21     0.1462
  2. axis:    yes    1.773000    3.070926    0.000000    21     0.1462
  3. axis:    yes    0.000000    0.000000   14.170000    81     0.1749

  Lengths:   3.546000   3.546000  14.170000
  Angles:   90.000000  90.000000 120.000000

Effective grid spacing dv^(1/3) = 0.1629

     iter     time        total  log10-change:
                         energy   eigst   dens
iter:   1 13:21:54  -737.193655   -1.26
iter:   2 13:22:07  -737.103931   -2.57  -1.66
iter:   3 13:22:20  -737.011709   -2.46  -1.78
iter:   4 13:22:33  -736.999615   -3.51  -2.08
iter:   5 13:22:46  -736.991382c  -3.96  -2.20
iter:   6 13:22:59  -736.985096c  -3.58  -2.30
iter:   7 13:23:12  -736.979144c  -3.74  -2.45
iter:   8 13:23:25  -736.978788c  -4.88  -2.81
iter:   9 13:23:39  -736.978425c  -4.53  -2.85
iter:  10 13:23:52  -736.978117c  -5.38  -3.08
iter:  11 13:24:05  -736.977983c  -5.79  -3.31
iter:  12 13:24:18  -736.977980c  -6.68  -3.44
iter:  13 13:24:32  -736.977995c  -5.98  -3.47
iter:  14 13:24:46  -736.977954c  -6.76  -3.64
iter:  15 13:24:59  -736.977913c  -6.59  -3.77
iter:  16 13:25:13  -736.977911c  -7.77c -3.94
iter:  17 13:25:27  -736.977902c  -7.33  -3.99
iter:  18 13:25:41  -736.977882c  -7.38  -4.19c
iter:  19 13:25:54  -736.977886c  -8.32c -4.28c

Converged after 19 iterations.

Dipole moment: (-0.000000, -0.000008, -0.693573) |e|*Ang

Energy contributions relative to reference atoms: (reference = -1616751.480151)

Kinetic:       +191.330043
Potential:     -169.358110
External:        +0.000000
XC:            -758.348227
Entropy (-ST):   -0.137202
Local:           -0.532990
SIC:             +0.000000
--------------------------
Free energy:   -737.046487
Extrapolated:  -736.977886

Showing only first 2 kpts
 Kpt  Band  Eigenvalues  Occupancy
  0    24      8.35112    1.85627
  0    25      9.29897    0.00197
  0    26     10.19715    0.00000
  0    27     10.29282    0.00000

  1    24      8.35112    1.85627
  1    25      9.29897    0.00197
  1    26     10.19715    0.00000
  1    27     10.29282    0.00000


Fermi level: 8.60695

No gap
No difference between direct/indirect transitions

Forces in eV/Ang:
  0 W    -0.00000    0.00000    7.50966
  1 W     0.00000    0.00000    7.51009
  2 Te    0.00000    0.00000    2.87944
  3 Te   -0.00000   -0.00000  -10.39162
  4 Te    0.00000    0.00000  -10.39132
  5 Te    0.00000    0.00000    2.87900

System changes: positions 

Initializing position-dependent things.

Density initialized from wave functions
                  
                  
                  
                  
                  
       Te         
                  
                  
                  
                  
                  
                  
         Te       
                  
                  
                  
       W          
                  
                  
                  
                  
                  
                  
         W        
                  
                  
         Te       
                  
                  
                  
                  
                  
                  
                  
                  
                  
       Te         
                  
                  
                  
                  

Positions:
   0 W      1.773000    1.023642    3.772145    ( 0.0000,  0.0000,  0.0000)
   1 W      1.773000   -1.023642   10.857145    ( 0.0000,  0.0000,  0.0000)
   2 Te     1.773000    1.023642   12.517832    ( 0.0000,  0.0000,  0.0000)
   3 Te     1.773000   -1.023642   -5.662814    ( 0.0000,  0.0000,  0.0000)
   4 Te     1.773000    1.023642    1.422186    ( 0.0000,  0.0000,  0.0000)
   5 Te     1.773000   -1.023642   19.602832    ( 0.0000,  0.0000,  0.0000)

Unit cell:
           periodic     x           y           z      points  spacing
  1. axis:    yes    1.773000   -3.070926    0.000000    21     0.1462
  2. axis:    yes    1.773000    3.070926    0.000000    21     0.1462
  3. axis:    yes    0.000000    0.000000   14.170000    81     0.1749

  Lengths:   3.546000   3.546000  14.170000
  Angles:   90.000000  90.000000 120.000000

Effective grid spacing dv^(1/3) = 0.1629

     iter     time        total  log10-change:
                         energy   eigst   dens
iter:   1 13:26:09  -739.733482   -0.91
iter:   2 13:26:22  -739.609504   -2.33  -1.55
iter:   3 13:26:35  -739.440990   -2.23  -1.66
iter:   4 13:26:49  -739.434375   -3.48  -1.99
iter:   5 13:27:03  -739.418239c  -3.95  -2.02
iter:   6 13:27:17  -739.400781   -3.16  -2.13
iter:   7 13:27:31  -739.394028c  -3.57  -2.35
iter:   8 13:27:45  -739.393404c  -4.72  -2.60
iter:   9 13:27:59  -739.391734c  -4.11  -2.65
iter:  10 13:28:13  -739.391085c  -4.74  -3.00
iter:  11 13:28:27  -739.391156c  -5.67  -3.14
iter:  12 13:28:41  -739.391131c  -6.50  -3.21
iter:  13 13:28:54  -739.391129c  -6.03  -3.23
iter:  14 13:29:08  -739.390999c  -5.83  -3.29
iter:  15 13:29:21  -739.390993c  -6.65  -3.43
iter:  16 13:29:35  -739.391003c  -5.70  -3.47
iter:  17 13:29:49  -739.390988c  -7.18  -4.04c
iter:  18 13:30:03  -739.390973c  -7.35  -4.13c
iter:  19 13:30:16  -739.390976c  -7.82c -4.22c

Converged after 19 iterations.

Dipole moment: (-0.000000, 0.000002, -1.044286) |e|*Ang

Energy contributions relative to reference atoms: (reference = -1616751.480151)

Kinetic:       +124.784332
Potential:     -111.607591
External:        +0.000000
XC:            -751.967930
Entropy (-ST):   -0.159162
Local:           -0.520206
SIC:             +0.000000
--------------------------
Free energy:   -739.470557
Extrapolated:  -739.390976

Showing only first 2 kpts
 Kpt  Band  Eigenvalues  Occupancy
  0    24      8.28941    1.84665
  0    25      9.23032    0.00197
  0    26     10.03100    0.00000
  0    27     10.13203    0.00000

  1    24      8.28941    1.84665
  1    25      9.23032    0.00197
  1    26     10.03100    0.00000
  1    27     10.13203    0.00000


Fermi level: 8.53825

No gap
No difference between direct/indirect transitions

Forces in eV/Ang:
  0 W     0.00000    0.00000    2.74367
  1 W    -0.00000   -0.00000    2.74304
  2 Te    0.00000    0.00000    0.55835
  3 Te   -0.00000    0.00000   -3.29813
  4 Te    0.00000   -0.00000   -3.29854
  5 Te    0.00000    0.00000    0.55842

System changes: positions 

Initializing position-dependent things.

Density initialized from wave functions
                  
                  
                  
                  
                  
       Te         
                  
                  
                  
                  
                  
                  
         Te       
                  
                  
                  
       W          
                  
                  
                  
                  
                  
                  
         W        
                  
                  
         Te       
                  
                  
                  
                  
                  
                  
                  
                  
                  
       Te         
                  
                  
                  
                  

Positions:
   0 W      1.773000    1.023642    3.784670    ( 0.0000,  0.0000,  0.0000)
   1 W      1.773000   -1.023642   10.869670    ( 0.0000,  0.0000,  0.0000)
   2 Te     1.773000    1.023642   12.563722    ( 0.0000,  0.0000,  0.0000)
   3 Te     1.773000   -1.023642   -5.721197    ( 0.0000,  0.0000,  0.0000)
   4 Te     1.773000    1.023642    1.363803    ( 0.0000,  0.0000,  0.0000)
   5 Te     1.773000   -1.023642   19.648722    ( 0.0000,  0.0000,  0.0000)

Unit cell:
           periodic     x           y           z      points  spacing
  1. axis:    yes    1.773000   -3.070926    0.000000    21     0.1462
  2. axis:    yes    1.773000    3.070926    0.000000    21     0.1462
  3. axis:    yes    0.000000    0.000000   14.170000    81     0.1749

  Lengths:   3.546000   3.546000  14.170000
  Angles:   90.000000  90.000000 120.000000

Effective grid spacing dv^(1/3) = 0.1629

     iter     time        total  log10-change:
                         energy   eigst   dens
iter:   1 13:30:30  -739.775027   -1.70
iter:   2 13:30:43  -739.743986   -3.17  -1.86
iter:   3 13:30:57  -739.709120   -2.93  -1.98
iter:   4 13:31:10  -739.704338   -4.01  -2.28
iter:   5 13:31:24  -739.702653c  -4.89  -2.44
iter:   6 13:31:38  -739.699715c  -3.88  -2.51
iter:   7 13:31:52  -739.698316c  -4.33  -2.69
iter:   8 13:32:05  -739.698230c  -5.42  -2.97
iter:   9 13:32:18  -739.698098c  -5.00  -3.02
iter:  10 13:32:31  -739.698029c  -5.60  -3.30
iter:  11 13:32:45  -739.698010c  -6.45  -3.42
iter:  12 13:32:58  -739.697996c  -7.03  -3.57
iter:  13 13:33:12  -739.697971c  -6.48  -3.59
iter:  14 13:33:25  -739.697968c  -6.92  -3.69
iter:  15 13:33:39  -739.697958c  -6.91  -3.81
iter:  16 13:33:52  -739.697936c  -6.95  -3.93
iter:  17 13:34:05  -739.697939c  -7.69c -4.03c

Converged after 17 iterations.

Dipole moment: (-0.000000, 0.000025, -1.268780) |e|*Ang

Energy contributions relative to reference atoms: (reference = -1616751.480151)

Kinetic:       +105.064089
Potential:      -94.140589
External:        +0.000000
XC:            -749.971663
Entropy (-ST):   -0.181588
Local:           -0.558982
SIC:             +0.000000
--------------------------
Free energy:   -739.788733
Extrapolated:  -739.697939

Showing only first 2 kpts
 Kpt  Band  Eigenvalues  Occupancy
  0    24      8.30996    1.80182
  0    25      9.24317    0.00161
  0    26      9.94403    0.00000
  0    27     10.04444    0.00000

  1    24      8.30996    1.80183
  1    25      9.24317    0.00161
  1    26      9.94402    0.00000
  1    27     10.04444    0.00000


Fermi level: 8.53070

No gap
No difference between direct/indirect transitions

Forces in eV/Ang:
  0 W    -0.00000    0.00000    1.55270
  1 W     0.00000   -0.00000    1.54887
  2 Te    0.00000   -0.00000   -0.34849
  3 Te   -0.00000    0.00000   -1.18555
  4 Te    0.00000   -0.00000   -1.18794
  5 Te    0.00000    0.00000   -0.34817

System changes: positions 

Initializing position-dependent things.

Density initialized from wave functions
                  
                  
                  
                  
                  
       Te         
                  
                  
                  
                  
                  
                  
         Te       
                  
                  
                  
       W          
                  
                  
                  
                  
                  
                  
         W        
                  
                  
         Te       
                  
                  
                  
                  
                  
                  
                  
                  
                  
       Te         
                  
                  
                  
                  

Positions:
   0 W      1.773000    1.023642    3.797310    ( 0.0000,  0.0000,  0.0000)
   1 W      1.773000   -1.023642   10.882310    ( 0.0000,  0.0000,  0.0000)
   2 Te     1.773000    1.023642   12.574197    ( 0.0000,  0.0000,  0.0000)
   3 Te     1.773000   -1.023642   -5.744001    ( 0.0000,  0.0000,  0.0000)
   4 Te     1.773000    1.023642    1.340999    ( 0.0000,  0.0000,  0.0000)
   5 Te     1.773000   -1.023642   19.659197    ( 0.0000,  0.0000,  0.0000)

Unit cell:
           periodic     x           y           z      points  spacing
  1. axis:    yes    1.773000   -3.070926    0.000000    21     0.1462
  2. axis:    yes    1.773000    3.070926    0.000000    21     0.1462
  3. axis:    yes    0.000000    0.000000   14.170000    81     0.1749

  Lengths:   3.546000   3.546000  14.170000
  Angles:   90.000000  90.000000 120.000000

Effective grid spacing dv^(1/3) = 0.1629

     iter     time        total  log10-change:
                         energy   eigst   dens
iter:   1 13:34:21  -739.797330   -2.27
iter:   2 13:34:34  -739.777404   -3.60  -1.95
iter:   3 13:34:48  -739.769566   -3.80  -2.05
iter:   4 13:35:02  -739.750944   -3.45  -2.11
iter:   5 13:35:16  -739.750384c  -4.37  -2.72
iter:   6 13:35:30  -739.750022c  -5.07  -2.87
iter:   7 13:35:44  -739.749482c  -5.17  -2.94
iter:   8 13:35:58  -739.749328c  -5.47  -3.23
iter:   9 13:36:13  -739.749327c  -6.51  -3.37
iter:  10 13:36:27  -739.749318c  -6.25  -3.40
iter:  11 13:36:44  -739.749312c  -6.12  -3.58
iter:  12 13:36:58  -739.749298c  -7.23  -3.89
iter:  13 13:37:13  -739.749287c  -7.56c -3.93
iter:  14 13:37:27  -739.749276c  -7.15  -4.00c
iter:  15 13:37:41  -739.749270c  -7.78c -4.23c

Converged after 15 iterations.

Dipole moment: (-0.000000, -0.000003, -1.400211) |e|*Ang

Energy contributions relative to reference atoms: (reference = -1616751.480151)

Kinetic:        +99.303301
Potential:      -89.008058
External:        +0.000000
XC:            -749.408625
Entropy (-ST):   -0.195208
Local:           -0.538283
SIC:             +0.000000
--------------------------
Free energy:   -739.846874
Extrapolated:  -739.749270

Showing only first 2 kpts
 Kpt  Band  Eigenvalues  Occupancy
  0    24      8.34739    1.72179
  0    25      9.27996    0.00110
  0    26      9.91870    0.00000
  0    27     10.01789    0.00000

  1    24      8.34739    1.72179
  1    25      9.27996    0.00110
  1    26      9.91870    0.00000
  1    27     10.01789    0.00000


Fermi level: 8.52966

No gap
No difference between direct/indirect transitions

Forces in eV/Ang:
  0 W    -0.00000    0.00000    0.95936
  1 W     0.00000   -0.00000    0.95863
  2 Te    0.00000    0.00000   -0.52979
  3 Te    0.00000    0.00000   -0.41494
  4 Te   -0.00000    0.00000   -0.41511
  5 Te    0.00000    0.00000   -0.52969

System changes: positions 

Initializing position-dependent things.

Density initialized from wave functions
                  
                  
                  
                  
                  
       Te         
                  
                  
                  
                  
                  
                  
         Te       
                  
                  
                  
       W          
                  
                  
                  
                  
                  
                  
         W        
                  
                  
         Te       
                  
                  
                  
                  
                  
                  
                  
                  
                  
       Te         
                  
                  
                  
                  

Positions:
   0 W      1.773000    1.023642    3.811599    ( 0.0000,  0.0000,  0.0000)
   1 W      1.773000   -1.023642   10.896599    ( 0.0000,  0.0000,  0.0000)
   2 Te     1.773000    1.023642   12.570924    ( 0.0000,  0.0000,  0.0000)
   3 Te     1.773000   -1.023642   -5.754594    ( 0.0000,  0.0000,  0.0000)
   4 Te     1.773000    1.023642    1.330406    ( 0.0000,  0.0000,  0.0000)
   5 Te     1.773000   -1.023642   19.655924    ( 0.0000,  0.0000,  0.0000)

Unit cell:
           periodic     x           y           z      points  spacing
  1. axis:    yes    1.773000   -3.070926    0.000000    21     0.1462
  2. axis:    yes    1.773000    3.070926    0.000000    21     0.1462
  3. axis:    yes    0.000000    0.000000   14.170000    81     0.1749

  Lengths:   3.546000   3.546000  14.170000
  Angles:   90.000000  90.000000 120.000000

Effective grid spacing dv^(1/3) = 0.1629

     iter     time        total  log10-change:
                         energy   eigst   dens
iter:   1 13:37:56  -739.823362   -2.35
iter:   2 13:38:11  -739.797341   -3.75  -1.95
iter:   3 13:38:26  -739.776599   -3.31  -2.10
iter:   4 13:38:42  -739.774167c  -4.26  -2.44
iter:   5 13:38:57  -739.772762c  -4.33  -2.63
iter:   6 13:39:12  -739.772446c  -5.00  -2.95
iter:   7 13:39:27  -739.772060c  -5.33  -3.02
iter:   8 13:39:42  -739.772023c  -5.87  -3.43
iter:   9 13:39:57  -739.772017c  -6.68  -3.52
iter:  10 13:40:13  -739.772009c  -6.71  -3.57
iter:  11 13:40:27  -739.771974c  -6.34  -3.60
iter:  12 13:40:43  -739.771963c  -6.88  -4.03c
iter:  13 13:40:58  -739.771961c  -7.82c -4.15c

Converged after 13 iterations.

Dipole moment: (-0.000000, 0.000009, -1.493925) |e|*Ang

Energy contributions relative to reference atoms: (reference = -1616751.480151)

Kinetic:        +97.663056
Potential:      -87.488294
External:        +0.000000
XC:            -749.306468
Entropy (-ST):   -0.205159
Local:           -0.537675
SIC:             +0.000000
--------------------------
Free energy:   -739.874540
Extrapolated:  -739.771961

Showing only first 2 kpts
 Kpt  Band  Eigenvalues  Occupancy
  0    24      8.39320    1.58507
  0    25      9.32869    0.00066
  0    26      9.92144    0.00000
  0    27     10.01969    0.00000

  1    24      8.39320    1.58507
  1    25      9.32869    0.00066
  1    26      9.92144    0.00000
  1    27     10.01969    0.00000


Fermi level: 8.52723

No gap
No difference between direct/indirect transitions

Forces in eV/Ang:
  0 W    -0.00000    0.00000    0.45830
  1 W    -0.00000    0.00000    0.45796
  2 Te   -0.00000    0.00000   -0.41842
  3 Te    0.00000    0.00000   -0.04022
  4 Te    0.00000    0.00000   -0.04018
  5 Te    0.00000   -0.00000   -0.41826

System changes: positions 

Initializing position-dependent things.

Density initialized from wave functions
                  
                  
                  
                  
                  
       Te         
                  
                  
                  
                  
                  
                  
         Te       
                  
                  
                  
       W          
                  
                  
                  
                  
                  
                  
         W        
                  
                  
         Te       
                  
                  
                  
                  
                  
                  
                  
                  
                  
       Te         
                  
                  
                  
                  

Positions:
   0 W      1.773000    1.023642    3.824295    ( 0.0000,  0.0000,  0.0000)
   1 W      1.773000   -1.023642   10.909295    ( 0.0000,  0.0000,  0.0000)
   2 Te     1.773000    1.023642   12.560640    ( 0.0000,  0.0000,  0.0000)
   3 Te     1.773000   -1.023642   -5.756828    ( 0.0000,  0.0000,  0.0000)
   4 Te     1.773000    1.023642    1.328172    ( 0.0000,  0.0000,  0.0000)
   5 Te     1.773000   -1.023642   19.645640    ( 0.0000,  0.0000,  0.0000)

Unit cell:
           periodic     x           y           z      points  spacing
  1. axis:    yes    1.773000   -3.070926    0.000000    21     0.1462
  2. axis:    yes    1.773000    3.070926    0.000000    21     0.1462
  3. axis:    yes    0.000000    0.000000   14.170000    81     0.1749

  Lengths:   3.546000   3.546000  14.170000
  Angles:   90.000000  90.000000 120.000000

Effective grid spacing dv^(1/3) = 0.1629

     iter     time        total  log10-change:
                         energy   eigst   dens
iter:   1 13:41:14  -739.821545   -2.45
iter:   2 13:41:29  -739.800082   -3.85  -2.00
iter:   3 13:41:45  -739.783042   -3.48  -2.17
iter:   4 13:42:00  -739.781442c  -3.93  -2.62
iter:   5 13:42:14  -739.781266c  -5.08  -2.97
iter:   6 13:42:30  -739.781045c  -5.39  -3.05
iter:   7 13:42:45  -739.780853c  -5.21  -3.09
iter:   8 13:42:59  -739.780833c  -6.00  -3.50
iter:   9 13:43:14  -739.780819c  -6.85  -3.58
iter:  10 13:43:29  -739.780738c  -5.94  -3.64
iter:  11 13:43:44  -739.780738c  -6.96  -4.10c
iter:  12 13:43:59  -739.780738c  -7.65c -4.14c

Converged after 12 iterations.

Dipole moment: (-0.000000, 0.000002, -1.547853) |e|*Ang

Energy contributions relative to reference atoms: (reference = -1616751.480151)

Kinetic:        +98.450267
Potential:      -88.120552
External:        +0.000000
XC:            -749.464874
Entropy (-ST):   -0.211384
Local:           -0.539886
SIC:             +0.000000
--------------------------
Free energy:   -739.886430
Extrapolated:  -739.780738

Showing only first 2 kpts
 Kpt  Band  Eigenvalues  Occupancy
  0    24      8.43861    1.40065
  0    25      9.37828    0.00039
  0    26      9.93904    0.00000
  0    27     10.03683    0.00000

  1    24      8.43861    1.40065
  1    25      9.37828    0.00039
  1    26      9.93904    0.00000
  1    27     10.03683    0.00000


Fermi level: 8.52350

No gap
No difference between direct/indirect transitions

Forces in eV/Ang:
  0 W     0.00000    0.00000    0.04881
  1 W    -0.00000   -0.00000    0.04852
  2 Te   -0.00000    0.00000   -0.14910
  3 Te    0.00000   -0.00000    0.11107
  4 Te   -0.00000    0.00000    0.11095
  5 Te    0.00000    0.00000   -0.14899

System changes: positions 

Initializing position-dependent things.

Density initialized from wave functions
                  
                  
                  
                  
                  
       Te         
                  
                  
                  
                  
                  
                  
         Te       
                  
                  
                  
       W          
                  
                  
                  
                  
                  
                  
         W        
                  
                  
         Te       
                  
                  
                  
                  
                  
                  
                  
                  
                  
       Te         
                  
                  
                  
                  

Positions:
   0 W      1.773000    1.023642    3.826665    ( 0.0000,  0.0000,  0.0000)
   1 W      1.773000   -1.023642   10.911665    ( 0.0000,  0.0000,  0.0000)
   2 Te     1.773000    1.023642   12.555507    ( 0.0000,  0.0000,  0.0000)
   3 Te     1.773000   -1.023642   -5.753849    ( 0.0000,  0.0000,  0.0000)
   4 Te     1.773000    1.023642    1.331151    ( 0.0000,  0.0000,  0.0000)
   5 Te     1.773000   -1.023642   19.640507    ( 0.0000,  0.0000,  0.0000)

Unit cell:
           periodic     x           y           z      points  spacing
  1. axis:    yes    1.773000   -3.070926    0.000000    21     0.1462
  2. axis:    yes    1.773000    3.070926    0.000000    21     0.1462
  3. axis:    yes    0.000000    0.000000   14.170000    81     0.1749

  Lengths:   3.546000   3.546000  14.170000
  Angles:   90.000000  90.000000 120.000000

Effective grid spacing dv^(1/3) = 0.1629

     iter     time        total  log10-change:
                         energy   eigst   dens
iter:   1 13:44:15  -739.783914   -3.65
iter:   2 13:44:31  -739.782922   -5.08  -2.69
iter:   3 13:44:45  -739.782441c  -5.05  -2.88
iter:   4 13:45:00  -739.782178c  -5.69  -2.99
iter:   5 13:45:15  -739.782127c  -5.39  -3.29
iter:   6 13:45:31  -739.782099c  -5.99  -3.57
iter:   7 13:45:47  -739.782108c  -6.16  -3.65
iter:   8 13:46:02  -739.782110c  -7.28  -4.06c
iter:   9 13:46:18  -739.782104c  -7.84c -4.10c

Converged after 9 iterations.

Dipole moment: (-0.000000, -0.000015, -1.540248) |e|*Ang

Energy contributions relative to reference atoms: (reference = -1616751.480151)

Kinetic:        +99.603973
Potential:      -89.121347
External:        +0.000000
XC:            -749.603202
Entropy (-ST):   -0.211463
Local:           -0.555797
SIC:             +0.000000
--------------------------
Free energy:   -739.887836
Extrapolated:  -739.782104

Showing only first 2 kpts
 Kpt  Band  Eigenvalues  Occupancy
  0    24      8.44958    1.34629
  0    25      9.39015    0.00034
  0    26      9.94903    0.00000
  0    27     10.04682    0.00000

  1    24      8.44958    1.34629
  1    25      9.39014    0.00034
  1    26      9.94903    0.00000
  1    27     10.04682    0.00000


Fermi level: 8.52183

No gap
No difference between direct/indirect transitions

Forces in eV/Ang:
  0 W     0.00000    0.00000   -0.02799
  1 W    -0.00000   -0.00000   -0.02565
  2 Te    0.00000    0.00000   -0.02718
  3 Te   -0.00000    0.00000    0.04150
  4 Te    0.00000    0.00000    0.04261
  5 Te    0.00000   -0.00000   -0.02732

Timing:                                      incl.     excl.
-------------------------------------------------------------------
Density initialized from wave functions:     6.809     6.792   0.3% |
 Symmetrize density:                         0.017     0.017   0.0% |
Forces:                                      6.908     6.908   0.3% |
Hamiltonian:                                 8.423     0.008   0.0% |
 Atomic:                                     1.282     0.004   0.0% |
  XC Correction:                             1.278     1.278   0.1% |
 Calculate atomic Hamiltonians:              0.065     0.065   0.0% |
 Communicate:                                0.000     0.000   0.0% |
 Initialize Hamiltonian:                     0.000     0.000   0.0% |
 Poisson:                                    0.006     0.006   0.0% |
 XC 3D grid:                                 7.062     1.126   0.0% |
  VdW-DF integral:                           5.936     0.218   0.0% |
   Convolution:                              1.083     1.083   0.0% |
   FFT:                                      0.366     0.366   0.0% |
   gather:                                   0.004     0.004   0.0% |
   hmm1:                                     0.017     0.017   0.0% |
   hmm2:                                     0.832     0.832   0.0% |
   iFFT:                                     0.559     0.559   0.0% |
   potential:                                1.275     0.010   0.0% |
    collect:                                 0.000     0.000   0.0% |
    p1:                                      0.153     0.153   0.0% |
    p2:                                      1.112     1.112   0.0% |
    sum:                                     0.000     0.000   0.0% |
   splines:                                  1.582     1.582   0.1% |
LCAO initialization:                        11.472     0.052   0.0% |
 LCAO eigensolver:                           4.407     0.002   0.0% |
  Calculate projections:                     0.005     0.005   0.0% |
  DenseAtomicCorrection:                     0.031     0.031   0.0% |
  Distribute overlap matrix:                 0.001     0.001   0.0% |
  Orbital Layouts:                           2.422     2.422   0.1% |
  Potential matrix:                          0.215     0.215   0.0% |
  Sum over cells:                            1.731     1.731   0.1% |
 LCAO to grid:                               6.649     6.649   0.3% |
 Set positions (LCAO WFS):                   0.364     0.047   0.0% |
  Basic WFS set positions:                   0.000     0.000   0.0% |
  Basis functions set positions:             0.000     0.000   0.0% |
  P tci:                                     0.208     0.208   0.0% |
  ST tci:                                    0.104     0.104   0.0% |
  mktci:                                     0.004     0.004   0.0% |
PWDescriptor:                                0.042     0.042   0.0% |
Redistribute:                                0.048     0.048   0.0% |
SCF-cycle:                                2077.468     1.951   0.1% |
 Davidson:                                1826.901   205.373   8.4% |--|
  Apply H:                                 373.108   368.484  15.1% |-----|
   HMM T:                                    4.624     4.624   0.2% |
  Subspace diag:                           417.587     0.583   0.0% |
   calc_h_matrix:                          389.309    15.778   0.6% |
    Apply H:                               373.531   368.726  15.1% |-----|
     HMM T:                                  4.805     4.805   0.2% |
   diagonalize:                              3.111     3.111   0.1% |
   rotate_psi:                              24.584    24.584   1.0% |
  calc. matrices:                          713.062    82.197   3.4% ||
   Apply H:                                630.865   621.514  25.4% |---------|
    HMM T:                                   9.352     9.352   0.4% |
  diagonalize:                              74.233    74.233   3.0% ||
  rotate_psi:                               43.538    43.538   1.8% ||
 Density:                                  135.066     0.002   0.0% |
  Atomic density matrices:                   0.591     0.591   0.0% |
  Mix:                                      13.672    13.672   0.6% |
  Multipole moments:                         0.012     0.012   0.0% |
  Pseudo density:                          120.789   120.490   4.9% |-|
   Symmetrize density:                       0.299     0.299   0.0% |
 Hamiltonian:                              109.852     0.139   0.0% |
  Atomic:                                   20.048     0.068   0.0% |
   XC Correction:                           19.980    19.980   0.8% |
  Calculate atomic Hamiltonians:             1.049     1.049   0.0% |
  Communicate:                               0.001     0.001   0.0% |
  Poisson:                                   0.101     0.101   0.0% |
  XC 3D grid:                               88.513    18.673   0.8% |
   VdW-DF integral:                         69.840     3.272   0.1% |
    Convolution:                            17.618    17.618   0.7% |
    FFT:                                     6.172     6.172   0.3% |
    gather:                                  0.058     0.058   0.0% |
    hmm1:                                    0.260     0.260   0.0% |
    hmm2:                                   13.276    13.276   0.5% |
    iFFT:                                    8.874     8.874   0.4% |
    potential:                              20.308     0.161   0.0% |
     collect:                                0.001     0.001   0.0% |
     p1:                                     2.345     2.345   0.1% |
     p2:                                    17.801    17.801   0.7% |
     sum:                                    0.001     0.001   0.0% |
    splines:                                 0.000     0.000   0.0% |
 Orthonormalize:                             3.698     0.033   0.0% |
  calc_s_matrix:                             0.491     0.491   0.0% |
  inverse-cholesky:                          0.059     0.059   0.0% |
  projections:                               2.370     2.370   0.1% |
  rotate_psi_s:                              0.744     0.744   0.0% |
Set symmetry:                                0.004     0.004   0.0% |
Other:                                     334.089   334.089  13.7% |----|
-------------------------------------------------------------------
Total:                                              2445.263 100.0%

Memory usage: 973.36 MiB
Date: Tue Apr  8 13:51:50 2025
