
  ___ ___ ___ _ _ _  
 |   |   |_  | | | | 
 | | | | | . | | | | 
 |__ |  _|___|_____|  25.1.0
 |___|_|             

User:   georgios-vourvachakis@georgios-vourvachakis-82K2
Date:   Tue Apr  8 14:21:46 2025
Arch:   x86_64
Pid:    24499
CWD:    /home/georgios-vourvachakis/Desktop/DFT_codes
Python: 3.12.3
gpaw:   /home/georgios-vourvachakis/Desktop/DFT_codes/.venv/lib/python3.12/site-packages/gpaw
_gpaw:  /home/georgios-vourvachakis/Desktop/DFT_codes/.venv/lib/python3.12/site-packages/
        _gpaw.cpython-312-x86_64-linux-gnu.so
ase:    /home/georgios-vourvachakis/Desktop/DFT_codes/.venv/lib/python3.12/site-packages/ase (version 3.24.0)
numpy:  /home/georgios-vourvachakis/Desktop/DFT_codes/.venv/lib/python3.12/site-packages/numpy (version 2.2.3)
scipy:  /home/georgios-vourvachakis/Desktop/DFT_codes/.venv/lib/python3.12/site-packages/scipy (version 1.15.1)
libxc:  5.2.3
units:  Angstrom and eV
cores: 1
OpenMP: False
OMP_NUM_THREADS: 1

Input parameters:
  kpts: [10 10  2]
  mode: {ecut: 600.0,
         name: pw}
  xc: vdW-DF2

System changes: positions, numbers, cell, pbc, initial_charges, initial_magmoms 

Initialize ...

species:
  W:
    name: Tungsten
    id: c5cdf39eb2772a6eef4e39aea6cd5c6f
    Z: 74.0
    valence: 14
    core: 60
    charge: 0.0
    file: /home/georgios-vourvachakis/Desktop/DFT_codes/gpaw_datasets/gpaw-setups-0.9.20000/W.revPBE.gz
    compensation charges: {type: gauss,
                           rc: 0.40,
                           lmax: 2}
    cutoffs: {filter: 2.36,
              core: 3.02}
    projectors:
      #              energy  rcut
      - 5s(2.00)   -78.785   1.344
      - 6s(2.00)    -5.639   1.344
      - 5p(6.00)   -43.193   1.355
      - 6p(0.00)    -1.336   1.355
      - 5d(4.00)    -4.444   1.228
      -  d          22.768   1.228
  
    # Using partial waves for W as LCAO basis

  Te:
    name: Tellurium
    id: cecded85d882fd4df90837008c85fd5a
    Z: 52.0
    valence: 6
    core: 46
    charge: 0.0
    file: /home/georgios-vourvachakis/Desktop/DFT_codes/gpaw_datasets/gpaw-setups-0.9.20000/Te.revPBE.gz
    compensation charges: {type: gauss,
                           rc: 0.36,
                           lmax: 2}
    cutoffs: {filter: 2.09,
              core: 3.17}
    projectors:
      #              energy  rcut
      - 5s(2.00)   -15.027   1.180
      - 5p(4.00)    -5.913   1.196
      -  s          12.185   1.180
      -  p          21.299   1.196
      -  d           0.000   1.238
  
    # Using partial waves for Te as LCAO basis

Reference energy: -1616751.480151  # eV

Spin-paired calculation

Convergence criteria:
 Maximum [total energy] change in last 3 cyles: 0.0005 eV / valence electron
 Maximum integral of absolute [dens]ity change: 0.0001 electrons / valence electron
 Maximum integral of absolute [eigenst]ate change: 4e-08 eV^2 / valence electron
 Maximum number of scf [iter]ations: 333
 (Square brackets indicate name in SCF output, whereas a 'c' in
 the SCF output indicates the quantity has converged.)

Symmetries present (total): 6

  ( 1  1  0)  ( 1  0  0)  ( 0  1  0)  ( 0 -1  0)  (-1  0  0)  (-1 -1  0)
  ( 0 -1  0)  ( 0  1  0)  (-1 -1  0)  (-1  0  0)  ( 1  1  0)  ( 1  0  0)
  ( 0  0  1)  ( 0  0  1)  ( 0  0  1)  ( 0  0  1)  ( 0  0  1)  ( 0  0  1)
Note: your k-points are not as symmetric as your crystal!

200 k-points: 10 x 10 x 2 Monkhorst-Pack grid
55 k-points in the irreducible part of the Brillouin zone
       k-points in crystal coordinates                weights
   0:     0.05000000   -0.05000000   -0.25000000          2/200
   1:     0.05000000   -0.05000000    0.25000000          2/200
   2:     0.05000000    0.05000000    0.25000000          4/200
   3:     0.15000000   -0.15000000   -0.25000000          2/200
   4:     0.15000000   -0.15000000    0.25000000          2/200
   5:     0.15000000   -0.05000000   -0.25000000          4/200
   6:     0.15000000   -0.05000000    0.25000000          4/200
   7:     0.15000000    0.05000000   -0.25000000          4/200
   8:     0.15000000    0.05000000    0.25000000          4/200
   9:     0.15000000    0.15000000    0.25000000          4/200
          ...
  54:     0.45000000    0.45000000    0.25000000          4/200

Wave functions: Plane wave expansion
  Cutoff energy: 600.000 eV
  Number of coefficients (min, max): 5178, 5234
  Pulay-stress correction: 0.000000 eV/Ang^3 (de/decut=0.000000)
  Using Numpy's FFT
  ScaLapack parameters: grid=1x1, blocksize=None
  Wavefunction extrapolation:
    Improved wavefunction reuse through dual PAW basis 

Occupation numbers: Fermi-Dirac:
  width: 0.1000  # eV
 

Eigensolver
   Davidson(niter=2) 

Densities:
  Coarse grid: 21*21*80 grid
  Fine grid: 42*42*160 grid
  Total Charge: 0.000000 

Density mixing:
  Method: separate
  Backend: pulay
  Linear mixing parameter: 0.05
  old densities: 5
  Damping of long wavelength oscillations: 50 

Hamiltonian:
  XC and Coulomb potentials evaluated on a 42*42*160 grid
  Using the vdW-DF2 Exchange-Correlation functional
  External potential:
    NoExternalPotential
 

XC parameters: vdW-DF2 with 2 nearest neighbor stencil

Memory estimate:
  Process memory now: 973.36 MiB
  Calculator: 235.00 MiB
    Density: 16.59 MiB
      Arrays: 7.00 MiB
      Localized functions: 6.90 MiB
      Mixer: 2.69 MiB
    Hamiltonian: 4.74 MiB
      Arrays: 4.58 MiB
      XC: 0.00 MiB
      Poisson: 0.00 MiB
      vbar: 0.17 MiB
    Wavefunctions: 213.67 MiB
      Arrays psit_nG: 158.13 MiB
      Eigensolver: 3.47 MiB
      Projections: 2.66 MiB
      Projectors: 43.66 MiB
      PW-descriptor: 5.74 MiB

Total number of cores used: 1

Number of atoms: 6
Number of atomic orbitals: 42
Number of bands in calculation: 36
Number of valence electrons: 52
Bands to converge: occupied

... initialized

Initializing position-dependent things.

Density initialized from atomic densities
Creating initial wave functions:
  36 bands from LCAO basis set

                  
                  
                  
                  
                  
       Te         
                  
                  
                  
                  
                  
                  
         Te       
                  
                  
                  
       W          
                  
                  
                  
                  
                  
                  
         W        
                  
         Te       
                  
                  
                  
                  
                  
                  
                  
                  
                  
       Te         
                  
                  
                  
                  

Positions:
   0 W      1.785500    1.030859    3.530000    ( 0.0000,  0.0000,  0.0000)
   1 W      1.785500   -1.030859   10.590000    ( 0.0000,  0.0000,  0.0000)
   2 Te     1.785500    1.030859   12.284400    ( 0.0000,  0.0000,  0.0000)
   3 Te     1.785500   -1.030859   -5.224400    ( 0.0000,  0.0000,  0.0000)
   4 Te     1.785500    1.030859    1.835600    ( 0.0000,  0.0000,  0.0000)
   5 Te     1.785500   -1.030859   19.344400    ( 0.0000,  0.0000,  0.0000)

Unit cell:
           periodic     x           y           z      points  spacing
  1. axis:    yes    1.785500   -3.092577    0.000000    21     0.1473
  2. axis:    yes    1.785500    3.092577    0.000000    21     0.1473
  3. axis:    yes    0.000000    0.000000   14.120000    80     0.1765

  Lengths:   3.571000   3.571000  14.120000
  Angles:   90.000000  90.000000 120.000000

Effective grid spacing dv^(1/3) = 0.1641

     iter     time        total  log10-change:
                         energy   eigst   dens
iter:   1 14:22:13  -706.975458
iter:   2 14:22:27  -704.856253   -0.67  -0.96
iter:   3 14:22:41  -703.340645   -1.23  -1.10
iter:   4 14:22:54  -702.249748   -1.55  -1.22
iter:   5 14:23:08  -701.840950   -1.65  -1.41
iter:   6 14:23:23  -701.832737   -2.46  -1.80
iter:   7 14:23:37  -701.836490c  -3.06  -1.89
iter:   8 14:23:50  -701.851933c  -2.48  -1.95
iter:   9 14:24:04  -701.849426c  -3.16  -2.29
iter:  10 14:24:18  -701.850181c  -3.85  -2.55
iter:  11 14:24:32  -701.848690c  -4.03  -2.59
iter:  12 14:24:47  -701.848904c  -4.52  -2.80
iter:  13 14:25:00  -701.848494c  -4.51  -2.91
iter:  14 14:25:13  -701.848548c  -5.13  -3.15
iter:  15 14:25:26  -701.848475c  -5.96  -3.30
iter:  16 14:25:40  -701.848433c  -5.73  -3.36
iter:  17 14:25:53  -701.848468c  -6.63  -3.76
iter:  18 14:26:08  -701.848468c  -7.23  -3.83
iter:  19 14:26:22  -701.848460c  -7.48c -3.88
iter:  20 14:26:35  -701.848438c  -6.88  -3.95
iter:  21 14:26:48  -701.848439c  -7.51c -4.21c

Converged after 21 iterations.

Dipole moment: (0.000000, -0.000000, -0.186917) |e|*Ang

Energy contributions relative to reference atoms: (reference = -1616751.480151)

Kinetic:       +541.311265
Potential:     -458.057477
External:        +0.000000
XC:            -783.229287
Entropy (-ST):   -0.078344
Local:           -1.833768
SIC:             +0.000000
--------------------------
Free energy:   -701.887611
Extrapolated:  -701.848439

Showing only first 2 kpts
 Kpt  Band  Eigenvalues  Occupancy
  0    24      7.47568    1.99999
  0    25      8.54230    1.62107
  0    26     10.00627    0.00000
  0    27     10.11169    0.00000

  1    24      7.47568    1.99999
  1    25      8.54230    1.62107
  1    26     10.00627    0.00000
  1    27     10.11169    0.00000


Fermi level: 8.68765

No gap
No difference between direct/indirect transitions

Forces in eV/Ang:
  0 W     0.00000    0.00000   77.09855
  1 W     0.00000   -0.00000   77.09855
  2 Te    0.00000    0.00000    2.48101
  3 Te    0.00000   -0.00000  -79.58911
  4 Te   -0.00000    0.00000  -79.58911
  5 Te    0.00000   -0.00000    2.48101

System changes: positions 

Initializing position-dependent things.

Density initialized from wave functions
                  
                  
                  
                  
                  
       Te         
                  
                  
                  
                  
                  
                  
         Te       
                  
                  
                  
       W          
                  
                  
                  
                  
                  
                  
         W        
                  
         Te       
                  
                  
                  
                  
                  
                  
                  
                  
                  
       Te         
                  
                  
                  
                  

Positions:
   0 W      1.785500    1.030859    3.723741    ( 0.0000,  0.0000,  0.0000)
   1 W      1.785500   -1.030859   10.783741    ( 0.0000,  0.0000,  0.0000)
   2 Te     1.785500    1.030859   12.290635    ( 0.0000,  0.0000,  0.0000)
   3 Te     1.785500   -1.030859   -5.424400    ( 0.0000,  0.0000,  0.0000)
   4 Te     1.785500    1.030859    1.635600    ( 0.0000,  0.0000,  0.0000)
   5 Te     1.785500   -1.030859   19.350635    ( 0.0000,  0.0000,  0.0000)

Unit cell:
           periodic     x           y           z      points  spacing
  1. axis:    yes    1.785500   -3.092577    0.000000    21     0.1473
  2. axis:    yes    1.785500    3.092577    0.000000    21     0.1473
  3. axis:    yes    0.000000    0.000000   14.120000    80     0.1765

  Lengths:   3.571000   3.571000  14.120000
  Angles:   90.000000  90.000000 120.000000

Effective grid spacing dv^(1/3) = 0.1641

     iter     time        total  log10-change:
                         energy   eigst   dens
iter:   1 14:27:02  -754.386502   +0.49
iter:   2 14:27:16  -745.983377   -0.87  -0.70
iter:   3 14:27:29  -734.796669   -0.17  -0.82
iter:   4 14:27:42  -734.715207   -1.91  -1.43
iter:   5 14:27:56  -734.572678   -2.32  -1.51
iter:   6 14:28:09  -734.132628   -1.57  -1.60
iter:   7 14:28:22  -734.118622   -3.19  -1.96
iter:   8 14:28:35  -734.098974   -3.12  -2.00
iter:   9 14:28:48  -734.069950   -2.81  -2.11
iter:  10 14:29:01  -734.050751   -3.26  -2.14
iter:  11 14:29:14  -734.048172c  -3.58  -2.46
iter:  12 14:29:27  -734.048111c  -4.46  -2.69
iter:  13 14:29:40  -734.047516c  -3.88  -2.73
iter:  14 14:29:53  -734.047006c  -4.53  -2.92
iter:  15 14:30:06  -734.047026c  -5.40  -3.33
iter:  16 14:30:19  -734.047026c  -6.45  -3.39
iter:  17 14:30:33  -734.046953c  -5.59  -3.40
iter:  18 14:30:47  -734.046934c  -5.68  -3.63
iter:  19 14:31:01  -734.046881c  -6.53  -3.86
iter:  20 14:31:14  -734.046890c  -6.52  -4.01c
iter:  21 14:31:27  -734.046892c  -8.05c -4.14c

Converged after 21 iterations.

Dipole moment: (0.000000, -0.000000, -0.563186) |e|*Ang

Energy contributions relative to reference atoms: (reference = -1616751.480151)

Kinetic:       +241.777961
Potential:     -212.517811
External:        +0.000000
XC:            -762.602743
Entropy (-ST):   -0.126540
Local:           -0.641029
SIC:             +0.000000
--------------------------
Free energy:   -734.110162
Extrapolated:  -734.046892

Showing only first 2 kpts
 Kpt  Band  Eigenvalues  Occupancy
  0    24      8.31204    1.84895
  0    25      9.27509    0.00161
  0    26     10.06601    0.00000
  0    27     10.15125    0.00000

  1    24      8.31204    1.84895
  1    25      9.27509    0.00161
  1    26     10.06601    0.00000
  1    27     10.15125    0.00000


Fermi level: 8.56252

No gap
No difference between direct/indirect transitions

Forces in eV/Ang:
  0 W     0.00000    0.00000   13.61235
  1 W     0.00000   -0.00000   13.61236
  2 Te    0.00000    0.00000    3.67845
  3 Te    0.00000    0.00000  -17.28832
  4 Te    0.00000    0.00000  -17.28831
  5 Te    0.00000    0.00000    3.67844

System changes: positions 

Initializing position-dependent things.

Density initialized from wave functions
                  
                  
                  
                  
                  
       Te         
                  
                  
                  
                  
                  
                  
                  
         Te       
                  
                  
       W          
                  
                  
                  
                  
                  
                  
         W        
                  
                  
         Te       
                  
                  
                  
                  
                  
                  
                  
                  
                  
       Te         
                  
                  
                  
                  

Positions:
   0 W      1.785500    1.030859    3.744051    ( 0.0000,  0.0000,  0.0000)
   1 W      1.785500   -1.030859   10.804051    ( 0.0000,  0.0000,  0.0000)
   2 Te     1.785500    1.030859   12.349021    ( 0.0000,  0.0000,  0.0000)
   3 Te     1.785500   -1.030859   -5.503025    ( 0.0000,  0.0000,  0.0000)
   4 Te     1.785500    1.030859    1.556975    ( 0.0000,  0.0000,  0.0000)
   5 Te     1.785500   -1.030859   19.409021    ( 0.0000,  0.0000,  0.0000)

Unit cell:
           periodic     x           y           z      points  spacing
  1. axis:    yes    1.785500   -3.092577    0.000000    21     0.1473
  2. axis:    yes    1.785500    3.092577    0.000000    21     0.1473
  3. axis:    yes    0.000000    0.000000   14.120000    80     0.1765

  Lengths:   3.571000   3.571000  14.120000
  Angles:   90.000000  90.000000 120.000000

Effective grid spacing dv^(1/3) = 0.1641

     iter     time        total  log10-change:
                         energy   eigst   dens
iter:   1 14:31:43  -737.260581   -1.25
iter:   2 14:31:56  -737.151600   -2.56  -1.62
iter:   3 14:32:10  -737.028887   -2.33  -1.74
iter:   4 14:32:23  -737.020205   -3.56  -2.16
iter:   5 14:32:36  -737.014039c  -3.75  -2.26
iter:   6 14:32:49  -737.007120c  -3.59  -2.36
iter:   7 14:33:02  -737.004767c  -4.33  -2.61
iter:   8 14:33:14  -737.004428c  -5.35  -2.81
iter:   9 14:33:27  -737.003742c  -4.86  -2.85
iter:  10 14:33:40  -737.003597c  -5.47  -3.11
iter:  11 14:33:53  -737.003576c  -5.83  -3.29
iter:  12 14:34:06  -737.003549c  -6.14  -3.39
iter:  13 14:34:19  -737.003557c  -6.09  -3.46
iter:  14 14:34:32  -737.003534c  -7.31  -3.59
iter:  15 14:34:45  -737.003448c  -6.29  -3.64
iter:  16 14:34:57  -737.003441c  -7.41c -3.90
iter:  17 14:35:10  -737.003443c  -7.89c -3.94
iter:  18 14:35:23  -737.003446c  -7.14  -3.97
iter:  19 14:35:36  -737.003455c  -7.28  -4.17c
iter:  20 14:35:50  -737.003446c  -8.13c -4.33c

Converged after 20 iterations.

Dipole moment: (0.000000, -0.000002, -0.709477) |e|*Ang

Energy contributions relative to reference atoms: (reference = -1616751.480151)

Kinetic:       +190.058305
Potential:     -168.403856
External:        +0.000000
XC:            -758.058019
Entropy (-ST):   -0.137160
Local:           -0.531296
SIC:             +0.000000
--------------------------
Free energy:   -737.072026
Extrapolated:  -737.003446

Showing only first 2 kpts
 Kpt  Band  Eigenvalues  Occupancy
  0    24      8.30072    1.75323
  0    25      9.27022    0.00087
  0    26      9.99609    0.00000
  0    27     10.08324    0.00000

  1    24      8.30072    1.75323
  1    25      9.27022    0.00087
  1    26      9.99609    0.00000
  1    27     10.08324    0.00000


Fermi level: 8.49680

No gap
No difference between direct/indirect transitions

Forces in eV/Ang:
  0 W     0.00000    0.00000    7.84219
  1 W    -0.00000   -0.00000    7.84239
  2 Te   -0.00000    0.00000    2.71788
  3 Te   -0.00000    0.00000  -10.56179
  4 Te   -0.00000    0.00000  -10.56173
  5 Te    0.00000   -0.00000    2.71773

System changes: positions 

Initializing position-dependent things.

Density initialized from wave functions
                  
                  
                  
                  
                  
       Te         
                  
                  
                  
                  
                  
                  
                  
         Te       
                  
                  
       W          
                  
                  
                  
                  
                  
                  
         W        
                  
                  
         Te       
                  
                  
                  
                  
                  
                  
                  
                  
                  
       Te         
                  
                  
                  
                  

Positions:
   0 W      1.785500    1.030859    3.766689    ( 0.0000,  0.0000,  0.0000)
   1 W      1.785500   -1.030859   10.826689    ( 0.0000,  0.0000,  0.0000)
   2 Te     1.785500    1.030859   12.461604    ( 0.0000,  0.0000,  0.0000)
   3 Te     1.785500   -1.030859   -5.638250    ( 0.0000,  0.0000,  0.0000)
   4 Te     1.785500    1.030859    1.421750    ( 0.0000,  0.0000,  0.0000)
   5 Te     1.785500   -1.030859   19.521604    ( 0.0000,  0.0000,  0.0000)

Unit cell:
           periodic     x           y           z      points  spacing
  1. axis:    yes    1.785500   -3.092577    0.000000    21     0.1473
  2. axis:    yes    1.785500    3.092577    0.000000    21     0.1473
  3. axis:    yes    0.000000    0.000000   14.120000    80     0.1765

  Lengths:   3.571000   3.571000  14.120000
  Angles:   90.000000  90.000000 120.000000

Effective grid spacing dv^(1/3) = 0.1641

     iter     time        total  log10-change:
                         energy   eigst   dens
iter:   1 14:36:04  -739.827485   -0.92
iter:   2 14:36:17  -739.669367   -2.33  -1.51
iter:   3 14:36:30  -739.463122   -2.15  -1.62
iter:   4 14:36:43  -739.453475   -3.46  -2.01
iter:   5 14:36:56  -739.441943c  -3.95  -2.05
iter:   6 14:37:09  -739.428402c  -3.41  -2.14
iter:   7 14:37:22  -739.418535c  -3.41  -2.30
iter:   8 14:37:35  -739.417906c  -4.60  -2.61
iter:   9 14:37:48  -739.416485c  -4.10  -2.65
iter:  10 14:38:01  -739.415690c  -4.83  -2.94
iter:  11 14:38:14  -739.415684c  -5.78  -3.19
iter:  12 14:38:28  -739.415679c  -6.52  -3.21
iter:  13 14:38:42  -739.415676c  -5.89  -3.24
iter:  14 14:38:55  -739.415570c  -6.00  -3.40
iter:  15 14:39:08  -739.415528c  -6.37  -3.61
iter:  16 14:39:21  -739.415522c  -6.69  -3.80
iter:  17 14:39:34  -739.415498c  -7.07  -4.08c
iter:  18 14:39:48  -739.415512c  -7.25  -4.14c
iter:  19 14:40:01  -739.415508c  -8.30c -4.25c

Converged after 19 iterations.

Dipole moment: (0.000000, 0.000006, -1.061830) |e|*Ang

Energy contributions relative to reference atoms: (reference = -1616751.480151)

Kinetic:       +125.250516
Potential:     -112.186979
External:        +0.000000
XC:            -751.894248
Entropy (-ST):   -0.155198
Local:           -0.507197
SIC:             +0.000000
--------------------------
Free energy:   -739.493108
Extrapolated:  -739.415508

Showing only first 2 kpts
 Kpt  Band  Eigenvalues  Occupancy
  0    24      8.24482    1.70454
  0    25      9.21912    0.00068
  0    26      9.83808    0.00000
  0    27      9.92867    0.00000

  1    24      8.24482    1.70454
  1    25      9.21912    0.00068
  1    26      9.83808    0.00000
  1    27      9.92867    0.00000


Fermi level: 8.42008

No gap
No difference between direct/indirect transitions

Forces in eV/Ang:
  0 W    -0.00000    0.00000    2.82719
  1 W     0.00000    0.00000    2.82605
  2 Te    0.00000    0.00000    0.63728
  3 Te    0.00000    0.00000   -3.45968
  4 Te    0.00000    0.00000   -3.46045
  5 Te    0.00000    0.00000    0.63736

System changes: positions 

Initializing position-dependent things.

Density initialized from wave functions
                  
                  
                  
                  
                  
       Te         
                  
                  
                  
                  
                  
                  
         Te       
                  
                  
                  
       W          
                  
                  
                  
                  
                  
                  
         W        
                  
                  
         Te       
                  
                  
                  
                  
                  
                  
                  
                  
                  
       Te         
                  
                  
                  
                  

Positions:
   0 W      1.785500    1.030859    3.780425    ( 0.0000,  0.0000,  0.0000)
   1 W      1.785500   -1.030859   10.840425    ( 0.0000,  0.0000,  0.0000)
   2 Te     1.785500    1.030859   12.509287    ( 0.0000,  0.0000,  0.0000)
   3 Te     1.785500   -1.030859   -5.699578    ( 0.0000,  0.0000,  0.0000)
   4 Te     1.785500    1.030859    1.360422    ( 0.0000,  0.0000,  0.0000)
   5 Te     1.785500   -1.030859   19.569287    ( 0.0000,  0.0000,  0.0000)

Unit cell:
           periodic     x           y           z      points  spacing
  1. axis:    yes    1.785500   -3.092577    0.000000    21     0.1473
  2. axis:    yes    1.785500    3.092577    0.000000    21     0.1473
  3. axis:    yes    0.000000    0.000000   14.120000    80     0.1765

  Lengths:   3.571000   3.571000  14.120000
  Angles:   90.000000  90.000000 120.000000

Effective grid spacing dv^(1/3) = 0.1641

     iter     time        total  log10-change:
                         energy   eigst   dens
iter:   1 14:40:16  -739.851570   -1.65
iter:   2 14:40:30  -739.814523   -3.11  -1.82
iter:   3 14:40:43  -739.780940   -2.95  -1.93
iter:   4 14:40:57  -739.766334   -3.62  -2.13
iter:   5 14:41:10  -739.764408c  -4.73  -2.42
iter:   6 14:41:23  -739.761345c  -3.87  -2.48
iter:   7 14:41:36  -739.759579c  -4.23  -2.66
iter:   8 14:41:49  -739.759470c  -5.32  -2.95
iter:   9 14:42:02  -739.759334c  -4.94  -3.00
iter:  10 14:42:15  -739.759250c  -5.63  -3.28
iter:  11 14:42:29  -739.759221c  -6.33  -3.38
iter:  12 14:42:42  -739.759206c  -6.91  -3.55
iter:  13 14:42:56  -739.759187c  -6.47  -3.58
iter:  14 14:43:10  -739.759187c  -6.93  -3.66
iter:  15 14:43:24  -739.759180c  -6.88  -3.77
iter:  16 14:43:37  -739.759144c  -6.78  -3.87
iter:  17 14:43:51  -739.759146c  -7.50c -4.01c

Converged after 17 iterations.

Dipole moment: (0.000000, 0.000030, -1.300987) |e|*Ang

Energy contributions relative to reference atoms: (reference = -1616751.480151)

Kinetic:       +104.222909
Potential:      -93.563020
External:        +0.000000
XC:            -749.783587
Entropy (-ST):   -0.173622
Local:           -0.548638
SIC:             +0.000000
--------------------------
Free energy:   -739.845957
Extrapolated:  -739.759146

Showing only first 2 kpts
 Kpt  Band  Eigenvalues  Occupancy
  0    24      8.25511    1.63559
  0    25      9.22841    0.00053
  0    26      9.74973    0.00000
  0    27      9.83898    0.00000

  1    24      8.25511    1.63560
  1    25      9.22842    0.00053
  1    26      9.74973    0.00000
  1    27      9.83898    0.00000


Fermi level: 8.40526

No gap
No difference between direct/indirect transitions

Forces in eV/Ang:
  0 W    -0.00000    0.00000    1.50815
  1 W     0.00000    0.00000    1.50403
  2 Te   -0.00000    0.00000   -0.29526
  3 Te   -0.00000   -0.00000   -1.19106
  4 Te   -0.00000   -0.00000   -1.19368
  5 Te    0.00000    0.00000   -0.29485

System changes: positions 

Initializing position-dependent things.

Density initialized from wave functions
                  
                  
                  
                  
                  
       Te         
                  
                  
                  
                  
                  
                  
         Te       
                  
                  
                  
       W          
                  
                  
                  
                  
                  
                  
         W        
                  
                  
         Te       
                  
                  
                  
                  
                  
                  
                  
                  
                  
       Te         
                  
                  
                  
                  

Positions:
   0 W      1.785500    1.030859    3.792867    ( 0.0000,  0.0000,  0.0000)
   1 W      1.785500   -1.030859   10.852867    ( 0.0000,  0.0000,  0.0000)
   2 Te     1.785500    1.030859   12.520531    ( 0.0000,  0.0000,  0.0000)
   3 Te     1.785500   -1.030859   -5.722875    ( 0.0000,  0.0000,  0.0000)
   4 Te     1.785500    1.030859    1.337125    ( 0.0000,  0.0000,  0.0000)
   5 Te     1.785500   -1.030859   19.580531    ( 0.0000,  0.0000,  0.0000)

Unit cell:
           periodic     x           y           z      points  spacing
  1. axis:    yes    1.785500   -3.092577    0.000000    21     0.1473
  2. axis:    yes    1.785500    3.092577    0.000000    21     0.1473
  3. axis:    yes    0.000000    0.000000   14.120000    80     0.1765

  Lengths:   3.571000   3.571000  14.120000
  Angles:   90.000000  90.000000 120.000000

Effective grid spacing dv^(1/3) = 0.1641

     iter     time        total  log10-change:
                         energy   eigst   dens
iter:   1 14:44:05  -739.858106   -2.27
iter:   2 14:44:18  -739.839128   -3.58  -1.95
iter:   3 14:44:31  -739.830116   -3.85  -2.05
iter:   4 14:44:45  -739.812307   -3.42  -2.13
iter:   5 14:44:58  -739.811802c  -4.38  -2.72
iter:   6 14:45:11  -739.811393c  -4.97  -2.86
iter:   7 14:45:24  -739.810799c  -5.01  -2.94
iter:   8 14:45:38  -739.810720c  -5.68  -3.29
iter:   9 14:45:53  -739.810719c  -6.49  -3.36
iter:  10 14:46:06  -739.810720c  -5.97  -3.42
iter:  11 14:46:19  -739.810709c  -6.50  -3.68
iter:  12 14:46:33  -739.810693c  -6.96  -3.89
iter:  13 14:46:47  -739.810693c  -7.71c -3.98
iter:  14 14:47:01  -739.810690c  -7.88c -4.03c

Converged after 14 iterations.

Dipole moment: (0.000000, 0.000002, -1.432335) |e|*Ang

Energy contributions relative to reference atoms: (reference = -1616751.480151)

Kinetic:        +98.412611
Potential:      -88.402519
External:        +0.000000
XC:            -749.209393
Entropy (-ST):   -0.185616
Local:           -0.518582
SIC:             +0.000000
--------------------------
Free energy:   -739.903498
Extrapolated:  -739.810690

Showing only first 2 kpts
 Kpt  Band  Eigenvalues  Occupancy
  0    24      8.28852    1.51565
  0    25      9.26194    0.00037
  0    26      9.72435    0.00000
  0    27      9.81194    0.00000

  1    24      8.28852    1.51565
  1    25      9.26194    0.00037
  1    26      9.72435    0.00000
  1    27      9.81194    0.00000


Fermi level: 8.40260

No gap
No difference between direct/indirect transitions

Forces in eV/Ang:
  0 W    -0.00000    0.00000    0.91534
  1 W    -0.00000    0.00000    0.91478
  2 Te    0.00000    0.00000   -0.48855
  3 Te   -0.00000    0.00000   -0.43301
  4 Te   -0.00000    0.00000   -0.43339
  5 Te    0.00000    0.00000   -0.48859

System changes: positions 

Initializing position-dependent things.

Density initialized from wave functions
                  
                  
                  
                  
                  
       Te         
                  
                  
                  
                  
                  
                  
         Te       
                  
                  
                  
       W          
                  
                  
                  
                  
                  
                  
         W        
                  
                  
         Te       
                  
                  
                  
                  
                  
                  
                  
                  
                  
       Te         
                  
                  
                  
                  

Positions:
   0 W      1.785500    1.030859    3.806148    ( 0.0000,  0.0000,  0.0000)
   1 W      1.785500   -1.030859   10.866148    ( 0.0000,  0.0000,  0.0000)
   2 Te     1.785500    1.030859   12.518462    ( 0.0000,  0.0000,  0.0000)
   3 Te     1.785500   -1.030859   -5.734118    ( 0.0000,  0.0000,  0.0000)
   4 Te     1.785500    1.030859    1.325882    ( 0.0000,  0.0000,  0.0000)
   5 Te     1.785500   -1.030859   19.578462    ( 0.0000,  0.0000,  0.0000)

Unit cell:
           periodic     x           y           z      points  spacing
  1. axis:    yes    1.785500   -3.092577    0.000000    21     0.1473
  2. axis:    yes    1.785500    3.092577    0.000000    21     0.1473
  3. axis:    yes    0.000000    0.000000   14.120000    80     0.1765

  Lengths:   3.571000   3.571000  14.120000
  Angles:   90.000000  90.000000 120.000000

Effective grid spacing dv^(1/3) = 0.1641

     iter     time        total  log10-change:
                         energy   eigst   dens
iter:   1 14:47:16  -739.875470   -2.40
iter:   2 14:47:29  -739.853178   -3.79  -1.98
iter:   3 14:47:43  -739.836050   -3.38  -2.12
iter:   4 14:47:56  -739.832037c  -4.24  -2.39
iter:   5 14:48:10  -739.831104c  -4.38  -2.69
iter:   6 14:48:23  -739.830811c  -5.03  -2.97
iter:   7 14:48:38  -739.830483c  -5.45  -3.05
iter:   8 14:48:52  -739.830431c  -5.81  -3.43
iter:   9 14:49:05  -739.830427c  -6.65  -3.56
iter:  10 14:49:18  -739.830422c  -6.80  -3.60
iter:  11 14:49:31  -739.830397c  -6.46  -3.67
iter:  12 14:49:45  -739.830385c  -6.88  -4.03c
iter:  13 14:49:58  -739.830381c  -7.80c -4.19c

Converged after 13 iterations.

Dipole moment: (0.000000, 0.000007, -1.526247) |e|*Ang

Energy contributions relative to reference atoms: (reference = -1616751.480151)

Kinetic:        +96.330561
Potential:      -86.469484
External:        +0.000000
XC:            -749.065618
Entropy (-ST):   -0.194595
Local:           -0.528543
SIC:             +0.000000
--------------------------
Free energy:   -739.927679
Extrapolated:  -739.830381

Showing only first 2 kpts
 Kpt  Band  Eigenvalues  Occupancy
  0    24      8.33124    1.32945
  0    25      9.30626    0.00023
  0    26      9.72469    0.00000
  0    27      9.81103    0.00000

  1    24      8.33124    1.32945
  1    25      9.30626    0.00023
  1    26      9.72469    0.00000
  1    27      9.81103    0.00000


Fermi level: 8.39968

No gap
No difference between direct/indirect transitions

Forces in eV/Ang:
  0 W     0.00000    0.00000    0.44199
  1 W     0.00000    0.00000    0.44176
  2 Te    0.00000   -0.00000   -0.41936
  3 Te    0.00000    0.00000   -0.02123
  4 Te    0.00000    0.00000   -0.02105
  5 Te    0.00000    0.00000   -0.41914

System changes: positions 

Initializing position-dependent things.

Density initialized from wave functions
                  
                  
                  
                  
                  
       Te         
                  
                  
                  
                  
                  
                  
         Te       
                  
                  
                  
       W          
                  
                  
                  
                  
                  
                  
         W        
                  
                  
         Te       
                  
                  
                  
                  
                  
                  
                  
                  
                  
       Te         
                  
                  
                  
                  

Positions:
   0 W      1.785500    1.030859    3.817844    ( 0.0000,  0.0000,  0.0000)
   1 W      1.785500   -1.030859   10.877844    ( 0.0000,  0.0000,  0.0000)
   2 Te     1.785500    1.030859   12.508700    ( 0.0000,  0.0000,  0.0000)
   3 Te     1.785500   -1.030859   -5.735967    ( 0.0000,  0.0000,  0.0000)
   4 Te     1.785500    1.030859    1.324033    ( 0.0000,  0.0000,  0.0000)
   5 Te     1.785500   -1.030859   19.568700    ( 0.0000,  0.0000,  0.0000)

Unit cell:
           periodic     x           y           z      points  spacing
  1. axis:    yes    1.785500   -3.092577    0.000000    21     0.1473
  2. axis:    yes    1.785500    3.092577    0.000000    21     0.1473
  3. axis:    yes    0.000000    0.000000   14.120000    80     0.1765

  Lengths:   3.571000   3.571000  14.120000
  Angles:   90.000000  90.000000 120.000000

Effective grid spacing dv^(1/3) = 0.1641

     iter     time        total  log10-change:
                         energy   eigst   dens
iter:   1 14:50:12  -739.873739   -2.52
iter:   2 14:50:26  -739.855899   -3.91  -2.03
iter:   3 14:50:39  -739.841143   -3.54  -2.20
iter:   4 14:50:52  -739.839832c  -4.00  -2.65
iter:   5 14:51:05  -739.839658c  -5.11  -3.01
iter:   6 14:51:18  -739.839462c  -5.47  -3.09
iter:   7 14:51:31  -739.839333c  -5.27  -3.13
iter:   8 14:51:44  -739.839314c  -6.03  -3.54
iter:   9 14:51:57  -739.839302c  -6.90  -3.62
iter:  10 14:52:11  -739.839223c  -5.99  -3.68
iter:  11 14:52:24  -739.839224c  -7.02  -4.10c
iter:  12 14:52:37  -739.839223c  -7.68c -4.17c

Converged after 12 iterations.

Dipole moment: (0.000000, -0.000005, -1.573190) |e|*Ang

Energy contributions relative to reference atoms: (reference = -1616751.480151)

Kinetic:        +97.082945
Potential:      -87.074338
External:        +0.000000
XC:            -749.217151
Entropy (-ST):   -0.199772
Local:           -0.530793
SIC:             +0.000000
--------------------------
Free energy:   -739.939109
Extrapolated:  -739.839223

Showing only first 2 kpts
 Kpt  Band  Eigenvalues  Occupancy
  0    24      8.37516    1.10580
  0    25      9.35234    0.00014
  0    26      9.74167    0.00000
  0    27      9.82738    0.00000

  1    24      8.37516    1.10580
  1    25      9.35234    0.00014
  1    26      9.74167    0.00000
  1    27      9.82738    0.00000


Fermi level: 8.39640

No gap
No difference between direct/indirect transitions

Forces in eV/Ang:
  0 W    -0.00000    0.00000    0.06978
  1 W     0.00000   -0.00000    0.07005
  2 Te    0.00000    0.00000   -0.17417
  3 Te    0.00000    0.00000    0.11545
  4 Te   -0.00000    0.00000    0.11551
  5 Te    0.00000    0.00000   -0.17432

System changes: positions 

Initializing position-dependent things.

Density initialized from wave functions
                  
                  
                  
                  
                  
       Te         
                  
                  
                  
                  
                  
                  
         Te       
                  
                  
                  
       W          
                  
                  
                  
                  
                  
                  
         W        
                  
                  
         Te       
                  
                  
                  
                  
                  
                  
                  
                  
                  
       Te         
                  
                  
                  
                  

Positions:
   0 W      1.785500    1.030859    3.821115    ( 0.0000,  0.0000,  0.0000)
   1 W      1.785500   -1.030859   10.881115    ( 0.0000,  0.0000,  0.0000)
   2 Te     1.785500    1.030859   12.502491    ( 0.0000,  0.0000,  0.0000)
   3 Te     1.785500   -1.030859   -5.732803    ( 0.0000,  0.0000,  0.0000)
   4 Te     1.785500    1.030859    1.327197    ( 0.0000,  0.0000,  0.0000)
   5 Te     1.785500   -1.030859   19.562491    ( 0.0000,  0.0000,  0.0000)

Unit cell:
           periodic     x           y           z      points  spacing
  1. axis:    yes    1.785500   -3.092577    0.000000    21     0.1473
  2. axis:    yes    1.785500    3.092577    0.000000    21     0.1473
  3. axis:    yes    0.000000    0.000000   14.120000    80     0.1765

  Lengths:   3.571000   3.571000  14.120000
  Angles:   90.000000  90.000000 120.000000

Effective grid spacing dv^(1/3) = 0.1641

     iter     time        total  log10-change:
                         energy   eigst   dens
iter:   1 14:52:51  -739.844248   -3.43
iter:   2 14:53:05  -739.842492   -4.85  -2.56
iter:   3 14:53:18  -739.841322c  -4.75  -2.75
iter:   4 14:53:32  -739.841141c  -5.53  -3.02
iter:   5 14:53:46  -739.841034c  -5.17  -3.18
iter:   6 14:53:59  -739.840990c  -5.84  -3.48
iter:   7 14:54:13  -739.841001c  -5.95  -3.55
iter:   8 14:54:27  -739.841004c  -6.96  -3.97
iter:   9 14:54:41  -739.840999c  -7.83c -4.02c

Converged after 9 iterations.

Dipole moment: (0.000000, 0.000010, -1.566857) |e|*Ang

Energy contributions relative to reference atoms: (reference = -1616751.480151)

Kinetic:        +98.402835
Potential:      -88.211559
External:        +0.000000
XC:            -749.378788
Entropy (-ST):   -0.200058
Local:           -0.553459
SIC:             +0.000000
--------------------------
Free energy:   -739.941028
Extrapolated:  -739.840999

Showing only first 2 kpts
 Kpt  Band  Eigenvalues  Occupancy
  0    24      8.39101    1.01942
  0    25      9.36857    0.00012
  0    26      9.75356    0.00000
  0    27      9.83921    0.00000

  1    24      8.39101    1.01943
  1    25      9.36857    0.00012
  1    26      9.75355    0.00000
  1    27      9.83921    0.00000


Fermi level: 8.39490

No gap
No difference between direct/indirect transitions

Forces in eV/Ang:
  0 W    -0.00000    0.00000   -0.03013
  1 W    -0.00000    0.00000   -0.03163
  2 Te   -0.00000    0.00000   -0.02740
  3 Te    0.00000   -0.00000    0.04253
  4 Te    0.00000    0.00000    0.04180
  5 Te   -0.00000    0.00000   -0.02730

Timing:                                      incl.     excl.
-------------------------------------------------------------------
Density initialized from wave functions:     6.605     6.588   0.3% |
 Symmetrize density:                         0.017     0.017   0.0% |
Forces:                                      6.491     6.491   0.3% |
Hamiltonian:                                 8.323     0.008   0.0% |
 Atomic:                                     1.300     0.004   0.0% |
  XC Correction:                             1.295     1.295   0.1% |
 Calculate atomic Hamiltonians:              0.069     0.069   0.0% |
 Communicate:                                0.000     0.000   0.0% |
 Initialize Hamiltonian:                     0.000     0.000   0.0% |
 Poisson:                                    0.005     0.005   0.0% |
 XC 3D grid:                                 6.941     1.094   0.0% |
  VdW-DF integral:                           5.847     0.196   0.0% |
   Convolution:                              1.058     1.058   0.0% |
   FFT:                                      0.393     0.393   0.0% |
   gather:                                   0.003     0.003   0.0% |
   hmm1:                                     0.017     0.017   0.0% |
   hmm2:                                     0.795     0.795   0.0% |
   iFFT:                                     0.512     0.512   0.0% |
   potential:                                1.275     0.009   0.0% |
    collect:                                 0.000     0.000   0.0% |
    p1:                                      0.141     0.141   0.0% |
    p2:                                      1.125     1.125   0.0% |
    sum:                                     0.000     0.000   0.0% |
   splines:                                  1.598     1.598   0.1% |
LCAO initialization:                        10.350     0.052   0.0% |
 LCAO eigensolver:                           4.253     0.002   0.0% |
  Calculate projections:                     0.004     0.004   0.0% |
  DenseAtomicCorrection:                     0.011     0.011   0.0% |
  Distribute overlap matrix:                 0.001     0.001   0.0% |
  Orbital Layouts:                           2.230     2.230   0.1% |
  Potential matrix:                          0.207     0.207   0.0% |
  Sum over cells:                            1.798     1.798   0.1% |
 LCAO to grid:                               5.686     5.686   0.3% |
 Set positions (LCAO WFS):                   0.359     0.047   0.0% |
  Basic WFS set positions:                   0.000     0.000   0.0% |
  Basis functions set positions:             0.000     0.000   0.0% |
  P tci:                                     0.202     0.202   0.0% |
  ST tci:                                    0.106     0.106   0.0% |
  mktci:                                     0.004     0.004   0.0% |
PWDescriptor:                                0.041     0.041   0.0% |
Redistribute:                                0.045     0.045   0.0% |
SCF-cycle:                                1941.257     1.947   0.1% |
 Davidson:                                1704.542   193.488   8.5% |--|
  Apply H:                                 334.591   330.368  14.5% |-----|
   HMM T:                                    4.223     4.223   0.2% |
  Subspace diag:                           376.907     0.559   0.0% |
   calc_h_matrix:                          350.486    14.790   0.7% |
    Apply H:                               335.696   331.212  14.6% |-----|
     HMM T:                                  4.484     4.484   0.2% |
   diagonalize:                              2.958     2.958   0.1% |
   rotate_psi:                              22.904    22.904   1.0% |
  calc. matrices:                          681.442    79.471   3.5% ||
   Apply H:                                601.971   593.023  26.1% |---------|
    HMM T:                                   8.948     8.948   0.4% |
  diagonalize:                              75.730    75.730   3.3% ||
  rotate_psi:                               42.384    42.384   1.9% ||
 Density:                                  126.541     0.002   0.0% |
  Atomic density matrices:                   0.573     0.573   0.0% |
  Mix:                                      13.230    13.230   0.6% |
  Multipole moments:                         0.012     0.012   0.0% |
  Pseudo density:                          112.724   112.434   5.0% |-|
   Symmetrize density:                       0.290     0.290   0.0% |
 Hamiltonian:                              104.598     0.133   0.0% |
  Atomic:                                   19.699     0.068   0.0% |
   XC Correction:                           19.632    19.632   0.9% |
  Calculate atomic Hamiltonians:             1.032     1.032   0.0% |
  Communicate:                               0.001     0.001   0.0% |
  Poisson:                                   0.100     0.100   0.0% |
  XC 3D grid:                               83.634    17.418   0.8% |
   VdW-DF integral:                         66.216     3.374   0.1% |
    Convolution:                            16.419    16.419   0.7% |
    FFT:                                     5.982     5.982   0.3% |
    gather:                                  0.054     0.054   0.0% |
    hmm1:                                    0.231     0.231   0.0% |
    hmm2:                                   12.698    12.698   0.6% |
    iFFT:                                    7.948     7.948   0.3% |
    potential:                              19.509     0.149   0.0% |
     collect:                                0.000     0.000   0.0% |
     p1:                                     2.145     2.145   0.1% |
     p2:                                    17.214    17.214   0.8% |
     sum:                                    0.001     0.001   0.0% |
    splines:                                 0.000     0.000   0.0% |
 Orthonormalize:                             3.629     0.032   0.0% |
  calc_s_matrix:                             0.474     0.474   0.0% |
  inverse-cholesky:                          0.059     0.059   0.0% |
  projections:                               2.355     2.355   0.1% |
  rotate_psi_s:                              0.709     0.709   0.0% |
Set symmetry:                                0.004     0.004   0.0% |
Other:                                     297.878   297.878  13.1% |----|
-------------------------------------------------------------------
Total:                                              2270.994 100.0%

Memory usage: 987.61 MiB
Date: Tue Apr  8 14:59:37 2025
