
  ___ ___ ___ _ _ _  
 |   |   |_  | | | | 
 | | | | | . | | | | 
 |__ |  _|___|_____|  25.1.0
 |___|_|             

User:   georgios-vourvachakis@georgios-vourvachakis-82K2
Date:   Sat May 10 22:10:12 2025
Arch:   x86_64
Pid:    194286
CWD:    /home/georgios-vourvachakis/Desktop/DFT_codes
Python: 3.12.3
gpaw:   /home/georgios-vourvachakis/Desktop/DFT_codes/.venv/lib/python3.12/site-packages/gpaw
_gpaw:  /home/georgios-vourvachakis/Desktop/DFT_codes/.venv/lib/python3.12/site-packages/
        _gpaw.cpython-312-x86_64-linux-gnu.so
ase:    /home/georgios-vourvachakis/Desktop/DFT_codes/.venv/lib/python3.12/site-packages/ase (version 3.24.0)
numpy:  /home/georgios-vourvachakis/Desktop/DFT_codes/.venv/lib/python3.12/site-packages/numpy (version 2.2.3)
scipy:  /home/georgios-vourvachakis/Desktop/DFT_codes/.venv/lib/python3.12/site-packages/scipy (version 1.15.1)
libxc:  5.2.3
units:  Angstrom and eV
cores: 1
OpenMP: False
OMP_NUM_THREADS: 1

Reading from ./CO_analysis/CO.gpw
Read dipole, energy, free_energy, magmom, magmoms
Reading input parameters:
  eigensolver: rmm-diis
  mode: {ecut: 340.0,
         name: pw}
  occupations: {name: fermi-dirac,
                width: 0.0}
  xc: PBE

Initialize ...

species:
  C:
    name: Carbon
    id: 4aa54d4b901d75f77cc0ea3eec22967b
    Z: 6.0
    valence: 4
    core: 2
    charge: 0.0
    file: /home/georgios-vourvachakis/Desktop/DFT_codes/gpaw_datasets/gpaw-setups-0.9.20000/C.PBE.gz
    compensation charges: {type: gauss,
                           rc: 0.20,
                           lmax: 2}
    cutoffs: {filter: 1.14,
              core: 1.14}
    projectors:
      #              energy  rcut
      - 2s(2.00)   -13.751   0.635
      - 2p(2.00)    -5.284   0.635
      -  s          13.461   0.635
      -  p          21.927   0.635
      -  d           0.000   0.635
  
    # Using partial waves for C as LCAO basis

  O:
    name: Oxygen
    id: 32ecd46bf208036f09c70b0ec9a88b78
    Z: 8.0
    valence: 6
    core: 2
    charge: 0.0
    file: /home/georgios-vourvachakis/Desktop/DFT_codes/gpaw_datasets/gpaw-setups-0.9.20000/O.PBE.gz
    compensation charges: {type: gauss,
                           rc: 0.21,
                           lmax: 2}
    cutoffs: {filter: 1.17,
              core: 0.83}
    projectors:
      #              energy  rcut
      - 2s(2.00)   -23.961   0.688
      - 2p(4.00)    -9.029   0.598
      -  s           3.251   0.688
      -  p          18.182   0.598
      -  d           0.000   0.619
  
    # Using partial waves for O as LCAO basis

Reference energy: -3068.480417  # eV

Spin-paired calculation

Convergence criteria:
 Maximum [total energy] change in last 3 cyles: 0.0005 eV / valence electron
 Maximum integral of absolute [dens]ity change: 0.0001 electrons / valence electron
 Maximum integral of absolute [eigenst]ate change: 4e-08 eV^2 / valence electron
 Maximum number of scf [iter]ations: 333
 (Square brackets indicate name in SCF output, whereas a 'c' in
 the SCF output indicates the quantity has converged.)

Symmetries present (total): 8

  ( 1  0  0)  ( 1  0  0)  ( 1  0  0)  ( 1  0  0)  ( 1  0  0)  ( 1  0  0)
  ( 0  1  0)  ( 0  1  0)  ( 0  0  1)  ( 0  0  1)  ( 0  0 -1)  ( 0  0 -1)
  ( 0  0  1)  ( 0  0 -1)  ( 0  1  0)  ( 0 -1  0)  ( 0  1  0)  ( 0 -1  0)

  ( 1  0  0)  ( 1  0  0)
  ( 0 -1  0)  ( 0 -1  0)
  ( 0  0  1)  ( 0  0 -1)

1 k-point (Gamma)
1 k-point in the irreducible part of the Brillouin zone
       k-points in crystal coordinates                weights
   0:     0.00000000    0.00000000    0.00000000          1/1

Wave functions: Plane wave expansion
  Cutoff energy: 340.000 eV
  Number of coefficients: 14243 (reduced to 7122)
  Pulay-stress correction: 0.000000 eV/Ang^3 (de/decut=0.000000)
  Using Numpy's FFT
  ScaLapack parameters: grid=1x1, blocksize=None
  Wavefunction extrapolation:
    Improved wavefunction reuse through dual PAW basis 

Occupation numbers: # Zero width 

Eigensolver
   RMM-DIIS eigensolver
       keep_htpsit: True
       DIIS iterations: 3
       Threshold for DIIS: 1.0e-16
       Limit lambda: False
       use_rayleigh: False
       trial_step: 0.1 

Densities:
  Coarse grid: 45*45*45 grid
  Fine grid: 90*90*90 grid
  Total Charge: 0.000000 

Density mixing:
  Method: separate
  Backend: pulay
  Linear mixing parameter: 0.05
  old densities: 5
  Damping of long wavelength oscillations: 50 

Hamiltonian:
  XC and Coulomb potentials evaluated on a 90*90*90 grid
  Using the PBE Exchange-Correlation functional
  External potential:
    NoExternalPotential
 

XC parameters: PBE with 2 nearest neighbor stencil

Memory estimate:
  Process memory now: 285.73 MiB
  Calculator: 61.37 MiB
    Density: 43.91 MiB
      Arrays: 18.08 MiB
      Localized functions: 18.88 MiB
      Mixer: 6.95 MiB
    Hamiltonian: 12.28 MiB
      Arrays: 11.82 MiB
      XC: 0.00 MiB
      Poisson: 0.00 MiB
      vbar: 0.46 MiB
    Wavefunctions: 5.19 MiB
      Arrays psit_nG: 0.87 MiB
      Eigensolver: 1.41 MiB
      Projections: 0.00 MiB
      Projectors: 1.03 MiB
      PW-descriptor: 1.87 MiB

Total number of cores used: 1

Number of atoms: 2
Number of atomic orbitals: 8
Number of bands in calculation: 8
Number of valence electrons: 10
Bands to converge: occupied

... initialized

Initializing position-dependent things.

Creating initial wave functions:
  8 bands from LCAO basis set

       .------------------------.  
      /|                        |  
     / |                        |  
    /  |                        |  
   /   |                        |  
  /    |                        |  
 *     |                        |  
 |     |                        |  
 |     |                        |  
 |     |       C  O             |  
 |     |                        |  
 |     |                        |  
 |     .------------------------.  
 |    /                        /   
 |   /                        /    
 |  /                        /     
 | /                        /      
 |/                        /       
 *------------------------*        

Positions:
   0 C      4.390000    5.000000    5.000000    ( 0.0000,  0.0000,  0.0000)
   1 O      5.610000    5.000000    5.000000    ( 0.0000,  0.0000,  0.0000)

Unit cell:
           periodic     x           y           z      points  spacing
  1. axis:    no    10.000000    0.000000    0.000000    45     0.2222
  2. axis:    no     0.000000   10.000000    0.000000    45     0.2222
  3. axis:    no     0.000000    0.000000   10.000000    45     0.2222

  Lengths:  10.000000  10.000000  10.000000
  Angles:   90.000000  90.000000  90.000000

Effective grid spacing dv^(1/3) = 0.2222

     iter     time        total  log10-change:
                         energy   eigst   dens
iter:   1 22:10:13    -6.771844   +1.17
iter:   2 22:10:13   -10.297515   -0.69  -2.25
iter:   3 22:10:14   -10.353303   -2.54  -3.01
iter:   4 22:10:14   -10.354602   -3.95  -3.38
iter:   5 22:10:14   -10.354644c  -5.35  -3.33
iter:   6 22:10:15   -10.354641c  -5.99  -3.41
iter:   7 22:10:15   -10.354640c  -6.78  -3.54
iter:   8 22:10:16   -10.354635c  -5.30  -3.59
iter:   9 22:10:16   -10.354636c  -6.76  -4.12c
iter:  10 22:10:17   -10.354636c  -7.86c -4.24c

Converged after 10 iterations.

Dipole moment: (0.002393, 0.000000, 0.000000) |e|*Ang

Energy contributions relative to reference atoms: (reference = -3068.480417)

Kinetic:        -11.847263
Potential:       +9.294942
External:        +0.000000
XC:              -7.728812
Entropy (-ST):   +0.000000
Local:           -0.073504
SIC:             +0.000000
--------------------------
Free energy:    -10.354636
Extrapolated:   -10.354636

 Band  Eigenvalues  Occupancy
    0    -28.52818    2.00000
    1    -14.19238    2.00000
    2    -10.86824    2.00000
    3    -10.86824    2.00000
    4     -8.96850    2.00000
    5     -2.52159    0.00000
    6     -2.52159    0.00000
    7      0.58271    0.00000

Fermi level: -5.74504

Gap: 6.447 eV
Transition (v -> c):
  (s=0, k=0, n=4, [0.00, 0.00, 0.00]) -> (s=0, k=0, n=5, [0.00, 0.00, 0.00])
No difference between direct/indirect transitions

Forces in eV/Ang:
  0 C     4.92333    0.00000    0.00000
  1 O    -5.08364    0.00000    0.00000

System changes: positions 

Initializing position-dependent things.

Density initialized from wave functions
       .------------------------.  
      /|                        |  
     / |                        |  
    /  |                        |  
   /   |                        |  
  /    |                        |  
 *     |                        |  
 |     |                        |  
 |     |                        |  
 |     |       C  O             |  
 |     |                        |  
 |     |                        |  
 |     .------------------------.  
 |    /                        /   
 |   /                        /    
 |  /                        /     
 | /                        /      
 |/                        /       
 *------------------------*        

Positions:
   0 C      4.583693    5.000000    5.000000    ( 0.0000,  0.0000,  0.0000)
   1 O      5.410000    5.000000    5.000000    ( 0.0000,  0.0000,  0.0000)

Unit cell:
           periodic     x           y           z      points  spacing
  1. axis:    no    10.000000    0.000000    0.000000    45     0.2222
  2. axis:    no     0.000000   10.000000    0.000000    45     0.2222
  3. axis:    no     0.000000    0.000000   10.000000    45     0.2222

  Lengths:  10.000000  10.000000  10.000000
  Angles:   90.000000  90.000000  90.000000

Effective grid spacing dv^(1/3) = 0.2222

     iter     time        total  log10-change:
                         energy   eigst   dens
iter:   1 22:10:17     5.812829   +1.54
iter:   2 22:10:18     1.280099   -0.82  -0.89
iter:   3 22:10:18     2.965797   +0.58  -0.92
iter:   4 22:10:18     2.270237   -1.54  -1.42
iter:   5 22:10:19     2.259137   -3.47  -1.36
iter:   6 22:10:19     2.211968   -1.19  -1.36
iter:   7 22:10:20     2.280837   -1.24  -1.26
iter:   8 22:10:20     2.268985   -3.24  -1.32
iter:   9 22:10:21     2.409128   -0.44  -1.32
iter:  10 22:10:22     2.335749   -1.83  -1.53
iter:  11 22:10:22     2.333120   -3.80  -1.64
iter:  12 22:10:23     2.241680   -1.11  -1.64
iter:  13 22:10:23     2.374739   -0.95  -1.41
iter:  14 22:10:24     2.388492   -1.36  -1.68
iter:  15 22:10:24     2.376033   -3.34  -2.08
iter:  16 22:10:25     2.378964   -2.35  -2.14
iter:  17 22:10:25     2.377878c  -4.02  -2.34
iter:  18 22:10:26     2.377671c  -3.04  -2.36
iter:  19 22:10:26     2.377775c  -3.02  -2.52
iter:  20 22:10:27     2.377605c  -4.45  -2.77
iter:  21 22:10:27     2.377628c  -3.29  -2.80
iter:  22 22:10:28     2.377699c  -3.53  -2.88
iter:  23 22:10:28     2.377631c  -5.77  -3.27
iter:  24 22:10:28     2.377635c  -4.88  -3.29
iter:  25 22:10:29     2.377636c  -5.23  -3.37
iter:  26 22:10:29     2.377634c  -6.26  -3.45
iter:  27 22:10:30     2.377634c  -6.93  -3.52
iter:  28 22:10:30     2.377634c  -5.80  -3.56
iter:  29 22:10:31     2.377633c  -6.56  -4.21c
iter:  30 22:10:31     2.377633c  -7.99c -4.34c

Converged after 30 iterations.

Dipole moment: (0.234924, 0.000000, 0.000000) |e|*Ang

Energy contributions relative to reference atoms: (reference = -3068.480417)

Kinetic:        +86.713907
Potential:      -61.043059
External:        +0.000000
XC:             -23.046893
Entropy (-ST):   +0.000000
Local:           -0.246321
SIC:             +0.000000
--------------------------
Free energy:     +2.377633
Extrapolated:    +2.377633

 Band  Eigenvalues  Occupancy
    0    -33.55791    2.00000
    1    -15.10335    2.00000
    2    -15.10335    2.00000
    3    -13.80513    2.00000
    4     -7.96651    2.00000
    5     -0.25882    0.00000
    6      0.80600    0.00000
    7      0.80600    0.00000

Fermi level: -4.11266

Gap: 7.708 eV
Transition (v -> c):
  (s=0, k=0, n=4, [0.00, 0.00, 0.00]) -> (s=0, k=0, n=5, [0.00, 0.00, 0.00])
No difference between direct/indirect transitions

Forces in eV/Ang:
  0 C  -121.80032    0.00000    0.00000
  1 O   121.69368    0.00000    0.00000

System changes: positions 

Initializing position-dependent things.

Density initialized from wave functions
       .------------------------.  
      /|                        |  
     / |                        |  
    /  |                        |  
   /   |                        |  
  /    |                        |  
 *     |                        |  
 |     |                        |  
 |     |                        |  
 |     |       C  O             |  
 |     |                        |  
 |     |                        |  
 |     .------------------------.  
 |    /                        /   
 |   /                        /    
 |  /                        /     
 | /                        /      
 |/                        /       
 *------------------------*        

Positions:
   0 C      4.425205    5.000000    5.000000    ( 0.0000,  0.0000,  0.0000)
   1 O      5.573649    5.000000    5.000000    ( 0.0000,  0.0000,  0.0000)

Unit cell:
           periodic     x           y           z      points  spacing
  1. axis:    no    10.000000    0.000000    0.000000    45     0.2222
  2. axis:    no     0.000000   10.000000    0.000000    45     0.2222
  3. axis:    no     0.000000    0.000000   10.000000    45     0.2222

  Lengths:  10.000000  10.000000  10.000000
  Angles:   90.000000  90.000000  90.000000

Effective grid spacing dv^(1/3) = 0.2222

     iter     time        total  log10-change:
                         energy   eigst   dens
iter:   1 22:10:31    -5.799063   +1.67
iter:   2 22:10:32   -11.445002   -0.20  -0.85
iter:   3 22:10:32   -11.188330   -1.18  -0.85
iter:   4 22:10:32   -10.287523   +0.02  -0.94
iter:   5 22:10:33   -10.512150   -1.85  -1.55
iter:   6 22:10:33   -10.516982   -1.30  -1.59
iter:   7 22:10:34   -10.516416c  -1.88  -1.86
iter:   8 22:10:34   -10.517382c  -2.69  -2.14
iter:   9 22:10:35   -10.517322c  -2.75  -2.13
iter:  10 22:10:35   -10.518062c  -2.54  -2.61
iter:  11 22:10:35   -10.517885c  -2.98  -2.44
iter:  12 22:10:36   -10.518007c  -3.12  -2.79
iter:  13 22:10:36   -10.518253c  -4.06  -2.88
iter:  14 22:10:37   -10.518279c  -4.83  -3.13
iter:  15 22:10:37   -10.518289c  -5.92  -3.25
iter:  16 22:10:38   -10.518268c  -4.84  -3.25
iter:  17 22:10:38   -10.518273c  -5.31  -3.60
iter:  18 22:10:39   -10.518275c  -6.59  -3.70
iter:  19 22:10:39   -10.518275c  -6.04  -3.69
iter:  20 22:10:40   -10.518275c  -5.61  -3.70
iter:  21 22:10:40   -10.518276c  -6.05  -3.87
iter:  22 22:10:41   -10.518275c  -6.09  -4.05c
iter:  23 22:10:41   -10.518276c  -6.95  -4.29c
iter:  24 22:10:41   -10.518276c  -6.68  -4.41c
iter:  25 22:10:42   -10.518276c  -7.41c -4.46c

Converged after 25 iterations.

Dipole moment: (0.050534, 0.000000, 0.000000) |e|*Ang

Energy contributions relative to reference atoms: (reference = -3068.480417)

Kinetic:         -4.603761
Potential:       +3.681330
External:        +0.000000
XC:              -9.493309
Entropy (-ST):   +0.000000
Local:           -0.102536
SIC:             +0.000000
--------------------------
Free energy:    -10.518276
Extrapolated:   -10.518276

 Band  Eigenvalues  Occupancy
    0    -29.49983    2.00000
    1    -14.14159    2.00000
    2    -11.44935    2.00000
    3    -11.44935    2.00000
    4     -8.81139    2.00000
    5     -0.26696    0.00000
    6      1.14374    0.00000
    7      1.14420    0.00000

Fermi level: -4.53918

Gap: 8.544 eV
Transition (v -> c):
  (s=0, k=0, n=4, [0.00, 0.00, 0.00]) -> (s=0, k=0, n=5, [0.00, 0.00, 0.00])
No difference between direct/indirect transitions

Forces in eV/Ang:
  0 C    -0.91751    0.00000    0.00000
  1 O     0.78429    0.00000    0.00000

System changes: positions 

Initializing position-dependent things.

Density initialized from wave functions
       .------------------------.  
      /|                        |  
     / |                        |  
    /  |                        |  
   /   |                        |  
  /    |                        |  
 *     |                        |  
 |     |                        |  
 |     |                        |  
 |     |       C  O             |  
 |     |                        |  
 |     |                        |  
 |     .------------------------.  
 |    /                        /   
 |   /                        /    
 |  /                        /     
 | /                        /      
 |/                        /       
 *------------------------*        

Positions:
   0 C      4.413220    5.000000    5.000000    ( 0.0000,  0.0000,  0.0000)
   1 O      5.572082    5.000000    5.000000    ( 0.0000,  0.0000,  0.0000)

Unit cell:
           periodic     x           y           z      points  spacing
  1. axis:    no    10.000000    0.000000    0.000000    45     0.2222
  2. axis:    no     0.000000   10.000000    0.000000    45     0.2222
  3. axis:    no     0.000000    0.000000   10.000000    45     0.2222

  Lengths:  10.000000  10.000000  10.000000
  Angles:   90.000000  90.000000  90.000000

Effective grid spacing dv^(1/3) = 0.2222

     iter     time        total  log10-change:
                         energy   eigst   dens
iter:   1 22:10:42   -10.519052   -1.54
iter:   2 22:10:43   -10.523537   -3.41  -2.44
iter:   3 22:10:43   -10.523457c  -4.75  -2.43
iter:   4 22:10:43   -10.521998c  -2.44  -2.45
iter:   5 22:10:44   -10.523096c  -3.79  -2.63
iter:   6 22:10:44   -10.522904c  -4.33  -2.65
iter:   7 22:10:44   -10.522471c  -3.20  -2.77
iter:   8 22:10:45   -10.522778c  -4.92  -3.07
iter:   9 22:10:45   -10.522772c  -5.12  -3.09
iter:  10 22:10:46   -10.522718c  -4.32  -3.17
iter:  11 22:10:46   -10.522742c  -5.78  -4.09c
iter:  12 22:10:47   -10.522742c  -6.73  -4.04c
iter:  13 22:10:47   -10.522742c  -7.14  -4.11c
iter:  14 22:10:48   -10.522742c  -6.66  -4.21c
iter:  15 22:10:48   -10.522742c  -6.50  -4.30c
iter:  16 22:10:49   -10.522742c  -7.00  -4.72c
iter:  17 22:10:49   -10.522742c  -7.54c -4.54c

Converged after 17 iterations.

Dipole moment: (0.043791, 0.000000, 0.000000) |e|*Ang

Energy contributions relative to reference atoms: (reference = -3068.480417)

Kinetic:         -5.811296
Potential:       +4.606046
External:        +0.000000
XC:              -9.217887
Entropy (-ST):   +0.000000
Local:           -0.099605
SIC:             +0.000000
--------------------------
Free energy:    -10.522742
Extrapolated:   -10.522742

 Band  Eigenvalues  Occupancy
    0    -29.35529    2.00000
    1    -14.14919    2.00000
    2    -11.36102    2.00000
    3    -11.36102    2.00000
    4     -8.83517    2.00000
    5     -0.26775    0.00000
    6      1.14703    0.00000
    7      1.14744    0.00000

Fermi level: -4.55146

Gap: 8.567 eV
Transition (v -> c):
  (s=0, k=0, n=4, [0.00, 0.00, 0.00]) -> (s=0, k=0, n=5, [0.00, 0.00, 0.00])
No difference between direct/indirect transitions

Forces in eV/Ang:
  0 C     0.08990    0.00000    0.00000
  1 O    -0.22143    0.00000    0.00000

System changes: positions 

Initializing position-dependent things.

Density initialized from wave functions
       .------------------------.  
      /|                        |  
     / |                        |  
    /  |                        |  
   /   |                        |  
  /    |                        |  
 *     |                        |  
 |     |                        |  
 |     |                        |  
 |     |       C  O             |  
 |     |                        |  
 |     |                        |  
 |     .------------------------.  
 |    /                        /   
 |   /                        /    
 |  /                        /     
 | /                        /      
 |/                        /       
 *------------------------*        

Positions:
   0 C      4.406826    5.000000    5.000000    ( 0.0000,  0.0000,  0.0000)
   1 O      5.564951    5.000000    5.000000    ( 0.0000,  0.0000,  0.0000)

Unit cell:
           periodic     x           y           z      points  spacing
  1. axis:    no    10.000000    0.000000    0.000000    45     0.2222
  2. axis:    no     0.000000   10.000000    0.000000    45     0.2222
  3. axis:    no     0.000000    0.000000   10.000000    45     0.2222

  Lengths:  10.000000  10.000000  10.000000
  Angles:   90.000000  90.000000  90.000000

Effective grid spacing dv^(1/3) = 0.2222

     iter     time        total  log10-change:
                         energy   eigst   dens
iter:   1 22:10:49   -10.522670   -2.08
iter:   2 22:10:50   -10.523776   -3.87  -2.92
iter:   3 22:10:50   -10.523975c  -4.09  -2.81
iter:   4 22:10:50   -10.523124c  -2.94  -2.64
iter:   5 22:10:51   -10.523648c  -4.29  -3.02
iter:   6 22:10:51   -10.523646c  -4.85  -3.15
iter:   7 22:10:52   -10.523608c  -4.56  -3.18
iter:   8 22:10:52   -10.523621c  -5.91  -3.66
iter:   9 22:10:53   -10.523617c  -5.27  -3.75
iter:  10 22:10:53   -10.523620c  -6.55  -4.25c
iter:  11 22:10:54   -10.523620c  -7.05  -4.47c
iter:  12 22:10:54   -10.523620c  -8.02c -4.64c

Converged after 12 iterations.

Dipole moment: (0.044203, 0.000000, 0.000000) |e|*Ang

Energy contributions relative to reference atoms: (reference = -3068.480417)

Kinetic:         -5.727318
Potential:       +4.540594
External:        +0.000000
XC:              -9.237796
Entropy (-ST):   +0.000000
Local:           -0.099100
SIC:             +0.000000
--------------------------
Free energy:    -10.523620
Extrapolated:   -10.523620

 Band  Eigenvalues  Occupancy
    0    -29.36578    2.00000
    1    -14.14886    2.00000
    2    -11.36733    2.00000
    3    -11.36733    2.00000
    4     -8.83402    2.00000
    5     -0.26771    0.00000
    6      1.14703    0.00000
    7      1.14744    0.00000

Fermi level: -4.55087

Gap: 8.566 eV
Transition (v -> c):
  (s=0, k=0, n=4, [0.00, 0.00, 0.00]) -> (s=0, k=0, n=5, [0.00, 0.00, 0.00])
No difference between direct/indirect transitions

Forces in eV/Ang:
  0 C     0.02139    0.00000    0.00000
  1 O    -0.12441    0.00000    0.00000

System changes: positions 

Initializing position-dependent things.

Density initialized from wave functions
       .------------------------.  
      /|                        |  
     / |                        |  
    /  |                        |  
   /   |                        |  
  /    |                        |  
 *     |                        |  
 |     |                        |  
 |     |                        |  
 |     |       C  O             |  
 |     |                        |  
 |     |                        |  
 |     .------------------------.  
 |    /                        /   
 |   /                        /    
 |  /                        /     
 | /                        /      
 |/                        /       
 *------------------------*        

Positions:
   0 C      4.387928    5.000000    5.000000    ( 0.0000,  0.0000,  0.0000)
   1 O      5.543875    5.000000    5.000000    ( 0.0000,  0.0000,  0.0000)

Unit cell:
           periodic     x           y           z      points  spacing
  1. axis:    no    10.000000    0.000000    0.000000    45     0.2222
  2. axis:    no     0.000000   10.000000    0.000000    45     0.2222
  3. axis:    no     0.000000    0.000000   10.000000    45     0.2222

  Lengths:  10.000000  10.000000  10.000000
  Angles:   90.000000  90.000000  90.000000

Effective grid spacing dv^(1/3) = 0.2222

     iter     time        total  log10-change:
                         energy   eigst   dens
iter:   1 22:10:54   -10.516389   -1.14
iter:   2 22:10:55   -10.525969   -2.94  -2.46
iter:   3 22:10:55   -10.527511   -3.22  -2.36
iter:   4 22:10:55   -10.520774   -2.04  -2.20
iter:   5 22:10:56   -10.525025   -3.43  -2.55
iter:   6 22:10:56   -10.524913c  -3.79  -2.65
iter:   7 22:10:56   -10.524590c  -3.61  -2.72
iter:   8 22:10:57   -10.524726c  -4.99  -3.24
iter:   9 22:10:57   -10.524685c  -4.37  -3.26
iter:  10 22:10:58   -10.524706c  -5.94  -3.86
iter:  11 22:10:58   -10.524706c  -6.09  -3.96
iter:  12 22:10:58   -10.524706c  -7.14  -4.20c
iter:  13 22:10:59   -10.524706c  -6.83  -4.23c
iter:  14 22:10:59   -10.524706c  -7.20  -4.63c
iter:  15 22:11:00   -10.524706c  -8.55c -4.99c

Converged after 15 iterations.

Dipole moment: (0.045487, 0.000000, 0.000000) |e|*Ang

Energy contributions relative to reference atoms: (reference = -3068.480417)

Kinetic:         -5.467141
Potential:       +4.337899
External:        +0.000000
XC:              -9.297362
Entropy (-ST):   +0.000000
Local:           -0.098102
SIC:             +0.000000
--------------------------
Free energy:    -10.524706
Extrapolated:   -10.524706

 Band  Eigenvalues  Occupancy
    0    -29.39628    2.00000
    1    -14.14675    2.00000
    2    -11.38559    2.00000
    3    -11.38559    2.00000
    4     -8.82959    2.00000
    5     -0.26752    0.00000
    6      1.14688    0.00000
    7      1.14748    0.00000

Fermi level: -4.54856

Gap: 8.562 eV
Transition (v -> c):
  (s=0, k=0, n=4, [0.00, 0.00, 0.00]) -> (s=0, k=0, n=5, [0.00, 0.00, 0.00])
No difference between direct/indirect transitions

Forces in eV/Ang:
  0 C    -0.18698    0.00000    0.00000
  1 O     0.17202    0.00000    0.00000

System changes: positions 

Initializing position-dependent things.

Density initialized from wave functions
       .------------------------.  
      /|                        |  
     / |                        |  
    /  |                        |  
   /   |                        |  
  /    |                        |  
 *     |                        |  
 |     |                        |  
 |     |                        |  
 |     |       C  O             |  
 |     |                        |  
 |     |                        |  
 |     .------------------------.  
 |    /                        /   
 |   /                        /    
 |  /                        /     
 | /                        /      
 |/                        /       
 *------------------------*        

Positions:
   0 C      4.383251    5.000000    5.000000    ( 0.0000,  0.0000,  0.0000)
   1 O      5.540897    5.000000    5.000000    ( 0.0000,  0.0000,  0.0000)

Unit cell:
           periodic     x           y           z      points  spacing
  1. axis:    no    10.000000    0.000000    0.000000    45     0.2222
  2. axis:    no     0.000000   10.000000    0.000000    45     0.2222
  3. axis:    no     0.000000    0.000000   10.000000    45     0.2222

  Lengths:  10.000000  10.000000  10.000000
  Angles:   90.000000  90.000000  90.000000

Effective grid spacing dv^(1/3) = 0.2222

     iter     time        total  log10-change:
                         energy   eigst   dens
iter:   1 22:11:00   -10.524498   -2.48
iter:   2 22:11:00   -10.525000   -4.25  -2.99
iter:   3 22:11:01   -10.525062c  -4.66  -2.95
iter:   4 22:11:01   -10.524764c  -3.37  -2.83
iter:   5 22:11:02   -10.524958c  -4.53  -3.33
iter:   6 22:11:02   -10.524941c  -4.98  -3.10
iter:   7 22:11:03   -10.524906c  -4.47  -3.22
iter:   8 22:11:03   -10.524923c  -5.87  -3.85
iter:   9 22:11:03   -10.524923c  -6.49  -3.82
iter:  10 22:11:04   -10.524921c  -5.75  -4.01c
iter:  11 22:11:04   -10.524922c  -7.28  -4.59c
iter:  12 22:11:04   -10.524922c  -8.07c -4.60c

Converged after 12 iterations.

Dipole moment: (0.044398, 0.000000, 0.000000) |e|*Ang

Energy contributions relative to reference atoms: (reference = -3068.480417)

Kinetic:         -5.662138
Potential:       +4.487110
External:        +0.000000
XC:              -9.252793
Entropy (-ST):   +0.000000
Local:           -0.097101
SIC:             +0.000000
--------------------------
Free energy:    -10.524922
Extrapolated:   -10.524922

 Band  Eigenvalues  Occupancy
    0    -29.37296    2.00000
    1    -14.14796    2.00000
    2    -11.37135    2.00000
    3    -11.37135    2.00000
    4     -8.83360    2.00000
    5     -0.26763    0.00000
    6      1.14695    0.00000
    7      1.14754    0.00000

Fermi level: -4.55061

Gap: 8.566 eV
Transition (v -> c):
  (s=0, k=0, n=4, [0.00, 0.00, 0.00]) -> (s=0, k=0, n=5, [0.00, 0.00, 0.00])
No difference between direct/indirect transitions

Forces in eV/Ang:
  0 C    -0.02675    0.00000    0.00000
  1 O     0.02344    0.00000    0.00000

System changes: positions 

Initializing position-dependent things.

Density initialized from wave functions
       .------------------------.  
      /|                        |  
     / |                        |  
    /  |                        |  
   /   |                        |  
  /    |                        |  
 *     |                        |  
 |     |                        |  
 |     |                        |  
 |     |       C  O             |  
 |     |                        |  
 |     |                        |  
 |     .------------------------.  
 |    /                        /   
 |   /                        /    
 |  /                        /     
 | /                        /      
 |/                        /       
 *------------------------*        

Positions:
   0 C      4.382137    5.000000    5.000000    ( 0.0000,  0.0000,  0.0000)
   1 O      5.540067    5.000000    5.000000    ( 0.0000,  0.0000,  0.0000)

Unit cell:
           periodic     x           y           z      points  spacing
  1. axis:    no    10.000000    0.000000    0.000000    45     0.2222
  2. axis:    no     0.000000   10.000000    0.000000    45     0.2222
  3. axis:    no     0.000000    0.000000   10.000000    45     0.2222

  Lengths:  10.000000  10.000000  10.000000
  Angles:   90.000000  90.000000  90.000000

Effective grid spacing dv^(1/3) = 0.2222

     iter     time        total  log10-change:
                         energy   eigst   dens
iter:   1 22:11:05   -10.524906   -3.73
iter:   2 22:11:05   -10.524933   -5.53  -3.68
iter:   3 22:11:05   -10.524936c  -6.05  -3.62
iter:   4 22:11:06   -10.524922c  -4.69  -3.52
iter:   5 22:11:06   -10.524931c  -5.98  -3.93
iter:   6 22:11:07   -10.524930c  -6.37  -3.79
iter:   7 22:11:07   -10.524929c  -5.81  -3.89
iter:   8 22:11:08   -10.524929c  -7.24  -4.51c
iter:   9 22:11:08   -10.524929c  -7.69c -4.49c

Converged after 9 iterations.

Dipole moment: (0.044285, 0.000000, 0.000000) |e|*Ang

Energy contributions relative to reference atoms: (reference = -3068.480417)

Kinetic:         -5.695475
Potential:       +4.512318
External:        +0.000000
XC:              -9.245131
Entropy (-ST):   +0.000000
Local:           -0.096642
SIC:             +0.000000
--------------------------
Free energy:    -10.524929
Extrapolated:   -10.524929

 Band  Eigenvalues  Occupancy
    0    -29.36921    2.00000
    1    -14.14844    2.00000
    2    -11.36914    2.00000
    3    -11.36914    2.00000
    4     -8.83408    2.00000
    5     -0.26767    0.00000
    6      1.14694    0.00000
    7      1.14754    0.00000

Fermi level: -4.55087

Gap: 8.566 eV
Transition (v -> c):
  (s=0, k=0, n=4, [0.00, 0.00, 0.00]) -> (s=0, k=0, n=5, [0.00, 0.00, 0.00])
No difference between direct/indirect transitions

Forces in eV/Ang:
  0 C    -0.00040    0.00000    0.00000
  1 O    -0.00374    0.00000    0.00000

Writing to ./CO_analysis/CO_relaxed.gpw (mode='')

System changes: positions 

Initializing position-dependent things.

Density initialized from wave functions
       .------------------------.  
      /|                        |  
     / |                        |  
    /  |                        |  
   /   |                        |  
  /    |                        |  
 *     |                        |  
 |     |                        |  
 |     |                        |  
 |     |       C  O             |  
 |     |                        |  
 |     |                        |  
 |     .------------------------.  
 |    /                        /   
 |   /                        /    
 |  /                        /     
 | /                        /      
 |/                        /       
 *------------------------*        

Positions:
   0 C      4.446035    5.000000    5.000000    ( 0.0000,  0.0000,  0.0000)
   1 O      5.553965    5.000000    5.000000    ( 0.0000,  0.0000,  0.0000)

Unit cell:
           periodic     x           y           z      points  spacing
  1. axis:    no    10.000000    0.000000    0.000000    45     0.2222
  2. axis:    no     0.000000   10.000000    0.000000    45     0.2222
  3. axis:    no     0.000000    0.000000   10.000000    45     0.2222

  Lengths:  10.000000  10.000000  10.000000
  Angles:   90.000000  90.000000  90.000000

Effective grid spacing dv^(1/3) = 0.2222

     iter     time        total  log10-change:
                         energy   eigst   dens
iter:   1 22:11:08   -10.299423   -0.13
iter:   2 22:11:09   -10.416792   -1.99  -1.72
iter:   3 22:11:09   -10.421362   -3.05  -1.71
iter:   4 22:11:09   -10.369970   -1.08  -1.68
iter:   5 22:11:10   -10.400721   -2.25  -2.12
iter:   6 22:11:10   -10.402373   -3.20  -1.94
iter:   7 22:11:11   -10.387653   -1.84  -1.97
iter:   8 22:11:11   -10.393883   -3.10  -2.59
iter:   9 22:11:12   -10.393367   -3.07  -2.56
iter:  10 22:11:12   -10.393595c  -4.51  -3.05
iter:  11 22:11:12   -10.393611c  -5.67  -3.16
iter:  12 22:11:13   -10.393604c  -5.61  -3.20
iter:  13 22:11:13   -10.393606c  -6.07  -3.31
iter:  14 22:11:14   -10.393572c  -4.40  -3.32
iter:  15 22:11:14   -10.393587c  -4.77  -3.86
iter:  16 22:11:15   -10.393588c  -5.45  -3.72
iter:  17 22:11:15   -10.393590c  -6.80  -3.98
iter:  18 22:11:15   -10.393589c  -6.34  -4.03c
iter:  19 22:11:16   -10.393589c  -6.33  -4.25c
iter:  20 22:11:16   -10.393589c  -6.80  -4.07c
iter:  21 22:11:17   -10.393589c  -5.39  -4.19c
iter:  22 22:11:17   -10.393589c  -5.74  -3.81
iter:  23 22:11:17   -10.393589c  -6.92  -4.32c
iter:  24 22:11:18   -10.393589c  -7.00  -4.56c
iter:  25 22:11:18   -10.393589c  -7.84c -5.03c

Converged after 25 iterations.

Dipole moment: (0.076706, 0.000000, 0.000000) |e|*Ang

Energy contributions relative to reference atoms: (reference = -3068.480417)

Kinetic:         +0.782668
Potential:       -0.409793
External:        +0.000000
XC:             -10.642215
Entropy (-ST):   +0.000000
Local:           -0.124249
SIC:             +0.000000
--------------------------
Free energy:    -10.393589
Extrapolated:   -10.393589

 Band  Eigenvalues  Occupancy
    0    -30.06997    2.00000
    1    -14.11351    2.00000
    2    -11.80610    2.00000
    3    -11.80610    2.00000
    4     -8.71816    2.00000
    5     -0.26382    0.00000
    6      1.14379    0.00000
    7      1.14501    0.00000

Fermi level: -4.49099

Gap: 8.454 eV
Transition (v -> c):
  (s=0, k=0, n=4, [0.00, 0.00, 0.00]) -> (s=0, k=0, n=5, [0.00, 0.00, 0.00])
No difference between direct/indirect transitions
System changes: positions 

Initializing position-dependent things.

Density initialized from wave functions
       .------------------------.  
      /|                        |  
     / |                        |  
    /  |                        |  
   /   |                        |  
  /    |                        |  
 *     |                        |  
 |     |                        |  
 |     |                        |  
 |     |       C  O             |  
 |     |                        |  
 |     |                        |  
 |     .------------------------.  
 |    /                        /   
 |   /                        /    
 |  /                        /     
 | /                        /      
 |/                        /       
 *------------------------*        

Positions:
   0 C      4.441035    5.000000    5.000000    ( 0.0000,  0.0000,  0.0000)
   1 O      5.558965    5.000000    5.000000    ( 0.0000,  0.0000,  0.0000)

Unit cell:
           periodic     x           y           z      points  spacing
  1. axis:    no    10.000000    0.000000    0.000000    45     0.2222
  2. axis:    no     0.000000   10.000000    0.000000    45     0.2222
  3. axis:    no     0.000000    0.000000   10.000000    45     0.2222

  Lengths:  10.000000  10.000000  10.000000
  Angles:   90.000000  90.000000  90.000000

Effective grid spacing dv^(1/3) = 0.2222

     iter     time        total  log10-change:
                         energy   eigst   dens
iter:   1 22:11:19   -10.440078   -1.72
iter:   2 22:11:19   -10.442663   -3.79  -2.51
iter:   3 22:11:19   -10.442006c  -2.98  -2.52
iter:   4 22:11:20   -10.442244c  -4.35  -3.04
iter:   5 22:11:20   -10.442296c  -5.09  -2.96
iter:   6 22:11:20   -10.442041c  -3.39  -2.88
iter:   7 22:11:21   -10.442198c  -4.87  -3.20
iter:   8 22:11:21   -10.442186c  -4.90  -3.28
iter:   9 22:11:22   -10.442189c  -5.49  -3.89
iter:  10 22:11:22   -10.442190c  -6.51  -4.28c
iter:  11 22:11:23   -10.442190c  -7.15  -4.43c
iter:  12 22:11:23   -10.442190c  -8.36c -4.47c

Converged after 12 iterations.

Dipole moment: (0.070367, 0.000000, 0.000000) |e|*Ang

Energy contributions relative to reference atoms: (reference = -3068.480417)

Kinetic:         -0.635662
Potential:       +0.664863
External:        +0.000000
XC:             -10.348752
Entropy (-ST):   +0.000000
Local:           -0.122639
SIC:             +0.000000
--------------------------
Free energy:    -10.442190
Extrapolated:   -10.442190

 Band  Eigenvalues  Occupancy
    0    -29.92798    2.00000
    1    -14.12001    2.00000
    2    -11.71588    2.00000
    3    -11.71588    2.00000
    4     -8.74073    2.00000
    5     -0.26459    0.00000
    6      1.14467    0.00000
    7      1.14558    0.00000

Fermi level: -4.50266

Gap: 8.476 eV
Transition (v -> c):
  (s=0, k=0, n=4, [0.00, 0.00, 0.00]) -> (s=0, k=0, n=5, [0.00, 0.00, 0.00])
No difference between direct/indirect transitions
System changes: positions 

Initializing position-dependent things.

Density initialized from wave functions
       .------------------------.  
      /|                        |  
     / |                        |  
    /  |                        |  
   /   |                        |  
  /    |                        |  
 *     |                        |  
 |     |                        |  
 |     |                        |  
 |     |       C  O             |  
 |     |                        |  
 |     |                        |  
 |     .------------------------.  
 |    /                        /   
 |   /                        /    
 |  /                        /     
 | /                        /      
 |/                        /       
 *------------------------*        

Positions:
   0 C      4.436035    5.000000    5.000000    ( 0.0000,  0.0000,  0.0000)
   1 O      5.563965    5.000000    5.000000    ( 0.0000,  0.0000,  0.0000)

Unit cell:
           periodic     x           y           z      points  spacing
  1. axis:    no    10.000000    0.000000    0.000000    45     0.2222
  2. axis:    no     0.000000   10.000000    0.000000    45     0.2222
  3. axis:    no     0.000000    0.000000   10.000000    45     0.2222

  Lengths:  10.000000  10.000000  10.000000
  Angles:   90.000000  90.000000  90.000000

Effective grid spacing dv^(1/3) = 0.2222

     iter     time        total  log10-change:
                         energy   eigst   dens
iter:   1 22:11:23   -10.476545   -1.73
iter:   2 22:11:24   -10.479064   -3.79  -2.51
iter:   3 22:11:24   -10.478433c  -3.02  -2.52
iter:   4 22:11:24   -10.478654c  -4.26  -3.03
iter:   5 22:11:25   -10.478714c  -4.98  -2.96
iter:   6 22:11:25   -10.478438c  -3.36  -2.87
iter:   7 22:11:26   -10.478609c  -4.78  -3.18
iter:   8 22:11:26   -10.478598c  -4.94  -3.27
iter:   9 22:11:27   -10.478599c  -5.35  -3.67
iter:  10 22:11:27   -10.478602c  -6.66  -4.19c
iter:  11 22:11:28   -10.478601c  -7.77c -4.22c

Converged after 11 iterations.

Dipole moment: (0.063980, 0.000000, 0.000000) |e|*Ang

Energy contributions relative to reference atoms: (reference = -3068.480417)

Kinetic:         -1.999373
Potential:       +1.700409
External:        +0.000000
XC:             -10.061174
Entropy (-ST):   +0.000000
Local:           -0.118464
SIC:             +0.000000
--------------------------
Free energy:    -10.478601
Extrapolated:   -10.478601

 Band  Eigenvalues  Occupancy
    0    -29.78688    2.00000
    1    -14.12731    2.00000
    2    -11.62729    2.00000
    3    -11.62729    2.00000
    4     -8.76358    2.00000
    5     -0.26542    0.00000
    6      1.14518    0.00000
    7      1.14590    0.00000

Fermi level: -4.51450

Gap: 8.498 eV
Transition (v -> c):
  (s=0, k=0, n=4, [0.00, 0.00, 0.00]) -> (s=0, k=0, n=5, [0.00, 0.00, 0.00])
No difference between direct/indirect transitions
System changes: positions 

Initializing position-dependent things.

Density initialized from wave functions
       .------------------------.  
      /|                        |  
     / |                        |  
    /  |                        |  
   /   |                        |  
  /    |                        |  
 *     |                        |  
 |     |                        |  
 |     |                        |  
 |     |       C  O             |  
 |     |                        |  
 |     |                        |  
 |     .------------------------.  
 |    /                        /   
 |   /                        /    
 |  /                        /     
 | /                        /      
 |/                        /       
 *------------------------*        

Positions:
   0 C      4.431035    5.000000    5.000000    ( 0.0000,  0.0000,  0.0000)
   1 O      5.568965    5.000000    5.000000    ( 0.0000,  0.0000,  0.0000)

Unit cell:
           periodic     x           y           z      points  spacing
  1. axis:    no    10.000000    0.000000    0.000000    45     0.2222
  2. axis:    no     0.000000   10.000000    0.000000    45     0.2222
  3. axis:    no     0.000000    0.000000   10.000000    45     0.2222

  Lengths:  10.000000  10.000000  10.000000
  Angles:   90.000000  90.000000  90.000000

Effective grid spacing dv^(1/3) = 0.2222

     iter     time        total  log10-change:
                         energy   eigst   dens
iter:   1 22:11:28   -10.501545   -1.75
iter:   2 22:11:28   -10.504028   -3.79  -2.51
iter:   3 22:11:29   -10.503428c  -3.10  -2.52
iter:   4 22:11:29   -10.503610c  -3.95  -2.96
iter:   5 22:11:29   -10.503694c  -4.71  -2.94
iter:   6 22:11:30   -10.503377c  -3.33  -2.83
iter:   7 22:11:30   -10.503565c  -4.74  -3.20
iter:   8 22:11:31   -10.503560c  -5.29  -3.30
iter:   9 22:11:31   -10.503562c  -6.10  -3.48
iter:  10 22:11:32   -10.503556c  -5.22  -3.63
iter:  11 22:11:32   -10.503559c  -7.09  -4.48c
iter:  12 22:11:33   -10.503559c  -7.19  -4.50c
iter:  13 22:11:33   -10.503559c  -8.46c -4.68c

Converged after 13 iterations.

Dipole moment: (0.057435, 0.000000, 0.000000) |e|*Ang

Energy contributions relative to reference atoms: (reference = -3068.480417)

Kinetic:         -3.298834
Potential:       +2.687219
External:        +0.000000
XC:              -9.780883
Entropy (-ST):   +0.000000
Local:           -0.111061
SIC:             +0.000000
--------------------------
Free energy:    -10.503559
Extrapolated:   -10.503559

 Band  Eigenvalues  Occupancy
    0    -29.64652    2.00000
    1    -14.13406    2.00000
    2    -11.53982    2.00000
    3    -11.53982    2.00000
    4     -8.78700    2.00000
    5     -0.26623    0.00000
    6      1.14561    0.00000
    7      1.14637    0.00000

Fermi level: -4.52661

Gap: 8.521 eV
Transition (v -> c):
  (s=0, k=0, n=4, [0.00, 0.00, 0.00]) -> (s=0, k=0, n=5, [0.00, 0.00, 0.00])
No difference between direct/indirect transitions
System changes: positions 

Initializing position-dependent things.

Density initialized from wave functions
       .------------------------.  
      /|                        |  
     / |                        |  
    /  |                        |  
   /   |                        |  
  /    |                        |  
 *     |                        |  
 |     |                        |  
 |     |                        |  
 |     |       C  O             |  
 |     |                        |  
 |     |                        |  
 |     .------------------------.  
 |    /                        /   
 |   /                        /    
 |  /                        /     
 | /                        /      
 |/                        /       
 *------------------------*        

Positions:
   0 C      4.426035    5.000000    5.000000    ( 0.0000,  0.0000,  0.0000)
   1 O      5.573965    5.000000    5.000000    ( 0.0000,  0.0000,  0.0000)

Unit cell:
           periodic     x           y           z      points  spacing
  1. axis:    no    10.000000    0.000000    0.000000    45     0.2222
  2. axis:    no     0.000000   10.000000    0.000000    45     0.2222
  3. axis:    no     0.000000    0.000000   10.000000    45     0.2222

  Lengths:  10.000000  10.000000  10.000000
  Angles:   90.000000  90.000000  90.000000

Effective grid spacing dv^(1/3) = 0.2222

     iter     time        total  log10-change:
                         energy   eigst   dens
iter:   1 22:11:34   -10.515786   -1.76
iter:   2 22:11:34   -10.518203   -3.79  -2.52
iter:   3 22:11:34   -10.517597c  -3.06  -2.53
iter:   4 22:11:35   -10.517797c  -4.21  -3.02
iter:   5 22:11:35   -10.517868c  -4.82  -2.96
iter:   6 22:11:35   -10.517573c  -3.35  -2.85
iter:   7 22:11:36   -10.517752c  -4.68  -3.19
iter:   8 22:11:36   -10.517746c  -5.07  -3.30
iter:   9 22:11:37   -10.517748c  -5.66  -3.61
iter:  10 22:11:37   -10.517748c  -5.72  -4.05c
iter:  11 22:11:37   -10.517748c  -6.81  -4.21c
iter:  12 22:11:38   -10.517748c  -6.70  -4.34c
iter:  13 22:11:38   -10.517748c  -7.27  -4.58c
iter:  14 22:11:39   -10.517748c  -7.53c -4.55c

Converged after 14 iterations.

Dipole moment: (0.050926, 0.000000, 0.000000) |e|*Ang

Energy contributions relative to reference atoms: (reference = -3068.480417)

Kinetic:         -4.534073
Potential:       +3.629351
External:        +0.000000
XC:              -9.507631
Entropy (-ST):   +0.000000
Local:           -0.105395
SIC:             +0.000000
--------------------------
Free energy:    -10.517748
Extrapolated:   -10.517748

 Band  Eigenvalues  Occupancy
    0    -29.50699    2.00000
    1    -14.14127    2.00000
    2    -11.45381    2.00000
    3    -11.45381    2.00000
    4     -8.80973    2.00000
    5     -0.26697    0.00000
    6      1.14622    0.00000
    7      1.14693    0.00000

Fermi level: -4.53835

Gap: 8.543 eV
Transition (v -> c):
  (s=0, k=0, n=4, [0.00, 0.00, 0.00]) -> (s=0, k=0, n=5, [0.00, 0.00, 0.00])
No difference between direct/indirect transitions
System changes: positions 

Initializing position-dependent things.

Density initialized from wave functions
       .------------------------.  
      /|                        |  
     / |                        |  
    /  |                        |  
   /   |                        |  
  /    |                        |  
 *     |                        |  
 |     |                        |  
 |     |                        |  
 |     |       C  O             |  
 |     |                        |  
 |     |                        |  
 |     .------------------------.  
 |    /                        /   
 |   /                        /    
 |  /                        /     
 | /                        /      
 |/                        /       
 *------------------------*        

Positions:
   0 C      4.421035    5.000000    5.000000    ( 0.0000,  0.0000,  0.0000)
   1 O      5.578965    5.000000    5.000000    ( 0.0000,  0.0000,  0.0000)

Unit cell:
           periodic     x           y           z      points  spacing
  1. axis:    no    10.000000    0.000000    0.000000    45     0.2222
  2. axis:    no     0.000000   10.000000    0.000000    45     0.2222
  3. axis:    no     0.000000    0.000000   10.000000    45     0.2222

  Lengths:  10.000000  10.000000  10.000000
  Angles:   90.000000  90.000000  90.000000

Effective grid spacing dv^(1/3) = 0.2222

     iter     time        total  log10-change:
                         energy   eigst   dens
iter:   1 22:11:39   -10.519892   -1.77
iter:   2 22:11:39   -10.522270   -3.78  -2.52
iter:   3 22:11:40   -10.521689c  -3.12  -2.53
iter:   4 22:11:40   -10.521860c  -3.98  -2.97
iter:   5 22:11:40   -10.521954c  -4.59  -2.95
iter:   6 22:11:41   -10.521619c  -3.33  -2.81
iter:   7 22:11:41   -10.521815c  -4.68  -3.22
iter:   8 22:11:42   -10.521814c  -5.47  -3.33
iter:   9 22:11:42   -10.521817c  -6.05  -3.51
iter:  10 22:11:43   -10.521810c  -5.26  -3.63
iter:  11 22:11:43   -10.521813c  -6.98  -4.52c
iter:  12 22:11:44   -10.521813c  -7.93c -4.56c

Converged after 12 iterations.

Dipole moment: (0.044291, 0.000000, 0.000000) |e|*Ang

Energy contributions relative to reference atoms: (reference = -3068.480417)

Kinetic:         -5.706169
Potential:       +4.527720
External:        +0.000000
XC:              -9.241777
Entropy (-ST):   +0.000000
Local:           -0.101587
SIC:             +0.000000
--------------------------
Free energy:    -10.521813
Extrapolated:   -10.521813

 Band  Eigenvalues  Occupancy
    0    -29.36759    2.00000
    1    -14.14798    2.00000
    2    -11.36859    2.00000
    3    -11.36859    2.00000
    4     -8.83256    2.00000
    5     -0.26771    0.00000
    6      1.14690    0.00000
    7      1.14746    0.00000

Fermi level: -4.55013

Gap: 8.565 eV
Transition (v -> c):
  (s=0, k=0, n=4, [0.00, 0.00, 0.00]) -> (s=0, k=0, n=5, [0.00, 0.00, 0.00])
No difference between direct/indirect transitions
System changes: positions 

Initializing position-dependent things.

Density initialized from wave functions
       .------------------------.  
      /|                        |  
     / |                        |  
    /  |                        |  
   /   |                        |  
  /    |                        |  
 *     |                        |  
 |     |                        |  
 |     |                        |  
 |     |       C  O             |  
 |     |                        |  
 |     |                        |  
 |     .------------------------.  
 |    /                        /   
 |   /                        /    
 |  /                        /     
 | /                        /      
 |/                        /       
 *------------------------*        

Positions:
   0 C      4.416035    5.000000    5.000000    ( 0.0000,  0.0000,  0.0000)
   1 O      5.583965    5.000000    5.000000    ( 0.0000,  0.0000,  0.0000)

Unit cell:
           periodic     x           y           z      points  spacing
  1. axis:    no    10.000000    0.000000    0.000000    45     0.2222
  2. axis:    no     0.000000   10.000000    0.000000    45     0.2222
  3. axis:    no     0.000000    0.000000   10.000000    45     0.2222

  Lengths:  10.000000  10.000000  10.000000
  Angles:   90.000000  90.000000  90.000000

Effective grid spacing dv^(1/3) = 0.2222

     iter     time        total  log10-change:
                         energy   eigst   dens
iter:   1 22:11:44   -10.514490   -1.79
iter:   2 22:11:44   -10.516810   -3.78  -2.52
iter:   3 22:11:45   -10.516238c  -3.13  -2.53
iter:   4 22:11:45   -10.516404c  -4.03  -2.98
iter:   5 22:11:45   -10.516498c  -4.57  -2.96
iter:   6 22:11:46   -10.516165c  -3.34  -2.81
iter:   7 22:11:46   -10.516360c  -4.65  -3.22
iter:   8 22:11:47   -10.516360c  -5.53  -3.35
iter:   9 22:11:47   -10.516363c  -5.92  -3.53
iter:  10 22:11:47   -10.516357c  -5.26  -3.62
iter:  11 22:11:48   -10.516359c  -6.92  -4.54c
iter:  12 22:11:48   -10.516359c  -8.37c -4.60c

Converged after 12 iterations.

Dipole moment: (0.037620, 0.000000, 0.000000) |e|*Ang

Energy contributions relative to reference atoms: (reference = -3068.480417)

Kinetic:         -6.825727
Potential:       +5.388292
External:        +0.000000
XC:              -8.981995
Entropy (-ST):   +0.000000
Local:           -0.096929
SIC:             +0.000000
--------------------------
Free energy:    -10.516359
Extrapolated:   -10.516359

 Band  Eigenvalues  Occupancy
    0    -29.22957    2.00000
    1    -14.15504    2.00000
    2    -11.28493    2.00000
    3    -11.28493    2.00000
    4     -8.85519    2.00000
    5     -0.26848    0.00000
    6      1.14755    0.00000
    7      1.14794    0.00000

Fermi level: -4.56183

Gap: 8.587 eV
Transition (v -> c):
  (s=0, k=0, n=4, [0.00, 0.00, 0.00]) -> (s=0, k=0, n=5, [0.00, 0.00, 0.00])
No difference between direct/indirect transitions
System changes: positions 

Initializing position-dependent things.

Density initialized from wave functions
       .------------------------.  
      /|                        |  
     / |                        |  
    /  |                        |  
   /   |                        |  
  /    |                        |  
 *     |                        |  
 |     |                        |  
 |     |                        |  
 |     |       C  O             |  
 |     |                        |  
 |     |                        |  
 |     .------------------------.  
 |    /                        /   
 |   /                        /    
 |  /                        /     
 | /                        /      
 |/                        /       
 *------------------------*        

Positions:
   0 C      4.411035    5.000000    5.000000    ( 0.0000,  0.0000,  0.0000)
   1 O      5.588965    5.000000    5.000000    ( 0.0000,  0.0000,  0.0000)

Unit cell:
           periodic     x           y           z      points  spacing
  1. axis:    no    10.000000    0.000000    0.000000    45     0.2222
  2. axis:    no     0.000000   10.000000    0.000000    45     0.2222
  3. axis:    no     0.000000    0.000000   10.000000    45     0.2222

  Lengths:  10.000000  10.000000  10.000000
  Angles:   90.000000  90.000000  90.000000

Effective grid spacing dv^(1/3) = 0.2222

     iter     time        total  log10-change:
                         energy   eigst   dens
iter:   1 22:11:48   -10.500135   -1.80
iter:   2 22:11:49   -10.502408   -3.78  -2.52
iter:   3 22:11:49   -10.501853c  -3.17  -2.53
iter:   4 22:11:49   -10.502001c  -3.95  -2.96
iter:   5 22:11:50   -10.502105c  -4.47  -2.96
iter:   6 22:11:50   -10.501759c  -3.34  -2.80
iter:   7 22:11:51   -10.501959c  -4.65  -3.25
iter:   8 22:11:51   -10.501961c  -5.82  -3.39
iter:   9 22:11:51   -10.501962c  -6.14  -3.52
iter:  10 22:11:52   -10.501957c  -5.36  -3.66
iter:  11 22:11:52   -10.501959c  -7.10  -4.55c
iter:  12 22:11:53   -10.501959c  -8.40c -4.60c

Converged after 12 iterations.

Dipole moment: (0.030891, 0.000000, 0.000000) |e|*Ang

Energy contributions relative to reference atoms: (reference = -3068.480417)

Kinetic:         -7.891874
Potential:       +6.210737
External:        +0.000000
XC:              -8.728641
Entropy (-ST):   +0.000000
Local:           -0.092182
SIC:             +0.000000
--------------------------
Free energy:    -10.501959
Extrapolated:   -10.501959

 Band  Eigenvalues  Occupancy
    0    -29.09251    2.00000
    1    -14.16206    2.00000
    2    -11.20243    2.00000
    3    -11.20243    2.00000
    4     -8.87765    2.00000
    5     -0.26926    0.00000
    6      1.14813    0.00000
    7      1.14835    0.00000

Fermi level: -4.57345

Gap: 8.608 eV
Transition (v -> c):
  (s=0, k=0, n=4, [0.00, 0.00, 0.00]) -> (s=0, k=0, n=5, [0.00, 0.00, 0.00])
No difference between direct/indirect transitions
System changes: positions 

Initializing position-dependent things.

Density initialized from wave functions
       .------------------------.  
      /|                        |  
     / |                        |  
    /  |                        |  
   /   |                        |  
  /    |                        |  
 *     |                        |  
 |     |                        |  
 |     |                        |  
 |     |       C  O             |  
 |     |                        |  
 |     |                        |  
 |     .------------------------.  
 |    /                        /   
 |   /                        /    
 |  /                        /     
 | /                        /      
 |/                        /       
 *------------------------*        

Positions:
   0 C      4.406035    5.000000    5.000000    ( 0.0000,  0.0000,  0.0000)
   1 O      5.593965    5.000000    5.000000    ( 0.0000,  0.0000,  0.0000)

Unit cell:
           periodic     x           y           z      points  spacing
  1. axis:    no    10.000000    0.000000    0.000000    45     0.2222
  2. axis:    no     0.000000   10.000000    0.000000    45     0.2222
  3. axis:    no     0.000000    0.000000   10.000000    45     0.2222

  Lengths:  10.000000  10.000000  10.000000
  Angles:   90.000000  90.000000  90.000000

Effective grid spacing dv^(1/3) = 0.2222

     iter     time        total  log10-change:
                         energy   eigst   dens
iter:   1 22:11:54   -10.477350   -1.82
iter:   2 22:11:54   -10.479576   -3.78  -2.53
iter:   3 22:11:54   -10.479041c  -3.21  -2.53
iter:   4 22:11:55   -10.479167c  -3.89  -2.95
iter:   5 22:11:55   -10.479281c  -4.39  -2.97
iter:   6 22:11:55   -10.478927c  -3.35  -2.78
iter:   7 22:11:56   -10.479129c  -4.65  -3.28
iter:   8 22:11:56   -10.479132c  -6.19  -3.43
iter:   9 22:11:57   -10.479132c  -6.15  -3.51
iter:  10 22:11:57   -10.479129c  -5.50  -3.75
iter:  11 22:11:58   -10.479130c  -7.18  -4.55c
iter:  12 22:11:58   -10.479130c  -7.59c -4.62c

Converged after 12 iterations.

Dipole moment: (0.024132, 0.000000, 0.000000) |e|*Ang

Energy contributions relative to reference atoms: (reference = -3068.480417)

Kinetic:         -8.905772
Potential:       +6.996145
External:        +0.000000
XC:              -8.481725
Entropy (-ST):   +0.000000
Local:           -0.087779
SIC:             +0.000000
--------------------------
Free energy:    -10.479130
Extrapolated:   -10.479130

 Band  Eigenvalues  Occupancy
    0    -28.95629    2.00000
    1    -14.16901    2.00000
    2    -11.12097    2.00000
    3    -11.12097    2.00000
    4     -8.89980    2.00000
    5     -0.27012    0.00000
    6      1.14853    0.00000
    7      1.14865    0.00000

Fermi level: -4.58496

Gap: 8.630 eV
Transition (v -> c):
  (s=0, k=0, n=4, [0.00, 0.00, 0.00]) -> (s=0, k=0, n=5, [0.00, 0.00, 0.00])
No difference between direct/indirect transitions
System changes: positions 

Initializing position-dependent things.

Density initialized from wave functions
       .------------------------.  
      /|                        |  
     / |                        |  
    /  |                        |  
   /   |                        |  
  /    |                        |  
 *     |                        |  
 |     |                        |  
 |     |                        |  
 |     |       C  O             |  
 |     |                        |  
 |     |                        |  
 |     .------------------------.  
 |    /                        /   
 |   /                        /    
 |  /                        /     
 | /                        /      
 |/                        /       
 *------------------------*        

Positions:
   0 C      4.401035    5.000000    5.000000    ( 0.0000,  0.0000,  0.0000)
   1 O      5.598965    5.000000    5.000000    ( 0.0000,  0.0000,  0.0000)

Unit cell:
           periodic     x           y           z      points  spacing
  1. axis:    no    10.000000    0.000000    0.000000    45     0.2222
  2. axis:    no     0.000000   10.000000    0.000000    45     0.2222
  3. axis:    no     0.000000    0.000000   10.000000    45     0.2222

  Lengths:  10.000000  10.000000  10.000000
  Angles:   90.000000  90.000000  90.000000

Effective grid spacing dv^(1/3) = 0.2222

     iter     time        total  log10-change:
                         energy   eigst   dens
iter:   1 22:11:58   -10.446623   -1.83
iter:   2 22:11:59   -10.448797   -3.78  -2.53
iter:   3 22:11:59   -10.448273c  -3.23  -2.54
iter:   4 22:11:59   -10.448390c  -3.89  -2.95
iter:   5 22:12:00   -10.448507c  -4.35  -2.97
iter:   6 22:12:00   -10.448152c  -3.36  -2.78
iter:   7 22:12:01   -10.448353c  -4.64  -3.29
iter:   8 22:12:02   -10.448358c  -6.41  -3.46
iter:   9 22:12:02   -10.448357c  -6.08  -3.53
iter:  10 22:12:02   -10.448355c  -5.65  -3.82
iter:  11 22:12:03   -10.448356c  -7.21  -4.59c
iter:  12 22:12:03   -10.448356c  -7.67c -4.63c

Converged after 12 iterations.

Dipole moment: (0.017342, 0.000000, 0.000000) |e|*Ang

Energy contributions relative to reference atoms: (reference = -3068.480417)

Kinetic:         -9.873008
Potential:       +7.748771
External:        +0.000000
XC:              -8.240613
Entropy (-ST):   +0.000000
Local:           -0.083506
SIC:             +0.000000
--------------------------
Free energy:    -10.448356
Extrapolated:   -10.448356

 Band  Eigenvalues  Occupancy
    0    -28.82133    2.00000
    1    -14.17608    2.00000
    2    -11.04079    2.00000
    3    -11.04079    2.00000
    4     -8.92167    2.00000
    5     -0.27104    0.00000
    6      1.14888    0.00000
    7      1.14894    0.00000

Fermi level: -4.59636

Gap: 8.651 eV
Transition (v -> c):
  (s=0, k=0, n=4, [0.00, 0.00, 0.00]) -> (s=0, k=0, n=5, [0.00, 0.00, 0.00])
No difference between direct/indirect transitions
System changes: positions 

Initializing position-dependent things.

Density initialized from wave functions
       .------------------------.  
      /|                        |  
     / |                        |  
    /  |                        |  
   /   |                        |  
  /    |                        |  
 *     |                        |  
 |     |                        |  
 |     |                        |  
 |     |       C  O             |  
 |     |                        |  
 |     |                        |  
 |     .------------------------.  
 |    /                        /   
 |   /                        /    
 |  /                        /     
 | /                        /      
 |/                        /       
 *------------------------*        

Positions:
   0 C      4.396035    5.000000    5.000000    ( 0.0000,  0.0000,  0.0000)
   1 O      5.603965    5.000000    5.000000    ( 0.0000,  0.0000,  0.0000)

Unit cell:
           periodic     x           y           z      points  spacing
  1. axis:    no    10.000000    0.000000    0.000000    45     0.2222
  2. axis:    no     0.000000   10.000000    0.000000    45     0.2222
  3. axis:    no     0.000000    0.000000   10.000000    45     0.2222

  Lengths:  10.000000  10.000000  10.000000
  Angles:   90.000000  90.000000  90.000000

Effective grid spacing dv^(1/3) = 0.2222

     iter     time        total  log10-change:
                         energy   eigst   dens
iter:   1 22:12:04   -10.408428   -1.85
iter:   2 22:12:04   -10.410555   -3.78  -2.53
iter:   3 22:12:05   -10.410045c  -3.26  -2.54
iter:   4 22:12:05   -10.410146c  -3.86  -2.94
iter:   5 22:12:06   -10.410269c  -4.30  -2.98
iter:   6 22:12:06   -10.409911c  -3.37  -2.77
iter:   7 22:12:07   -10.410113c  -4.64  -3.32
iter:   8 22:12:07   -10.410118c  -6.61  -3.49
iter:   9 22:12:08   -10.410117c  -6.05  -3.54
iter:  10 22:12:08   -10.410116c  -5.79  -3.86
iter:  11 22:12:09   -10.410116c  -7.34  -4.52c
iter:  12 22:12:09   -10.410116c  -7.90c -4.52c

Converged after 12 iterations.

Dipole moment: (0.010495, 0.000000, 0.000000) |e|*Ang

Energy contributions relative to reference atoms: (reference = -3068.480417)

Kinetic:        -10.795159
Potential:       +8.469697
External:        +0.000000
XC:              -8.005331
Entropy (-ST):   +0.000000
Local:           -0.079324
SIC:             +0.000000
--------------------------
Free energy:    -10.410116
Extrapolated:   -10.410116

 Band  Eigenvalues  Occupancy
    0    -28.68755    2.00000
    1    -14.18319    2.00000
    2    -10.96174    2.00000
    3    -10.96174    2.00000
    4     -8.94317    2.00000
    5     -0.27192    0.00000
    6      1.14928    0.00000
    7      1.14929    0.00000

Fermi level: -4.60754

Gap: 8.671 eV
Transition (v -> c):
  (s=0, k=0, n=4, [0.00, 0.00, 0.00]) -> (s=0, k=0, n=5, [0.00, 0.00, 0.00])
No difference between direct/indirect transitions
Timing:                                      incl.     excl.
-------------------------------------------------------------------
Density initialized from wave functions:     0.570     0.441   0.4% |
 Symmetrize density:                         0.130     0.130   0.1% |
Forces:                                      0.337     0.337   0.3% |
Hamiltonian:                                 3.489     0.029   0.0% |
 Atomic:                                     0.346     0.005   0.0% |
  XC Correction:                             0.341     0.341   0.3% |
 Calculate atomic Hamiltonians:              0.110     0.110   0.1% |
 Communicate:                                0.000     0.000   0.0% |
 Poisson:                                    0.024     0.024   0.0% |
 XC 3D grid:                                 2.980     2.980   2.5% ||
LCAO initialization:                         0.038     0.019   0.0% |
 LCAO eigensolver:                           0.003     0.000   0.0% |
  Calculate projections:                     0.000     0.000   0.0% |
  DenseAtomicCorrection:                     0.000     0.000   0.0% |
  Distribute overlap matrix:                 0.000     0.000   0.0% |
  Orbital Layouts:                           0.000     0.000   0.0% |
  Potential matrix:                          0.002     0.002   0.0% |
 LCAO to grid:                               0.014     0.014   0.0% |
 Set positions (LCAO WFS):                   0.003     0.000   0.0% |
  Basic WFS set positions:                   0.000     0.000   0.0% |
  Basis functions set positions:             0.000     0.000   0.0% |
  P tci:                                     0.001     0.001   0.0% |
  ST tci:                                    0.000     0.000   0.0% |
  mktci:                                     0.001     0.001   0.0% |
PWDescriptor:                                0.002     0.002   0.0% |
Redistribute:                                0.004     0.004   0.0% |
SCF-cycle:                                 111.731     0.088   0.1% |
 Density:                                   52.657     0.003   0.0% |
  Atomic density matrices:                   0.079     0.079   0.1% |
  Mix:                                      49.191    49.191  42.0% |----------------|
  Multipole moments:                         0.014     0.014   0.0% |
  Pseudo density:                            3.370     1.520   1.3% ||
   Symmetrize density:                       1.850     1.850   1.6% ||
 Hamiltonian:                               48.311     0.499   0.4% |
  Atomic:                                    4.782     0.106   0.1% |
   XC Correction:                            4.676     4.676   4.0% |-|
  Calculate atomic Hamiltonians:             1.547     1.547   1.3% ||
  Communicate:                               0.001     0.001   0.0% |
  Poisson:                                   0.408     0.408   0.3% |
  XC 3D grid:                               41.074    41.074  35.1% |-------------|
 Orthonormalize:                             0.292     0.011   0.0% |
  calc_s_matrix:                             0.047     0.047   0.0% |
  inverse-cholesky:                          0.016     0.016   0.0% |
  projections:                               0.171     0.171   0.1% |
  rotate_psi_s:                              0.046     0.046   0.0% |
 RMM-DIIS:                                   7.449     0.171   0.1% |
  Apply H:                                   2.722     2.688   2.3% ||
   HMM T:                                    0.034     0.034   0.0% |
  Calculate residuals:                       0.360     0.360   0.3% |
  DIIS step:                                 3.648     0.173   0.1% |
   Calculate residuals:                      3.039     0.336   0.3% |
    Apply H:                                 2.702     2.666   2.3% ||
     HMM T:                                  0.037     0.037   0.0% |
   Construct matrix:                         0.201     0.201   0.2% |
   Linear solve:                             0.032     0.032   0.0% |
   Update trial vectors:                     0.164     0.164   0.1% |
   precondition:                             0.040     0.040   0.0% |
  Find lambda:                               0.142     0.142   0.1% |
  Update psi:                                0.050     0.050   0.0% |
  precondition:                              0.182     0.182   0.2% |
  projections:                               0.174     0.174   0.1% |
 Subspace diag:                              2.933     0.012   0.0% |
  calc_h_matrix:                             2.818     0.070   0.1% |
   Apply H:                                  2.748     2.702   2.3% ||
    HMM T:                                   0.046     0.046   0.0% |
  diagonalize:                               0.027     0.027   0.0% |
  rotate_psi:                                0.076     0.076   0.1% |
Set symmetry:                                0.001     0.001   0.0% |
Other:                                       0.836     0.836   0.7% |
-------------------------------------------------------------------
Total:                                               117.008 100.0%

Date: Sat May 10 22:12:09 2025
