
  ___ ___ ___ _ _ _  
 |   |   |_  | | | | 
 | | | | | . | | | | 
 |__ |  _|___|_____|  25.1.0
 |___|_|             

User:   georgios-vourvachakis@georgios-vourvachakis-82K2
Date:   Sat May 10 22:10:05 2025
Arch:   x86_64
Pid:    194286
CWD:    /home/georgios-vourvachakis/Desktop/DFT_codes
Python: 3.12.3
gpaw:   /home/georgios-vourvachakis/Desktop/DFT_codes/.venv/lib/python3.12/site-packages/gpaw
_gpaw:  /home/georgios-vourvachakis/Desktop/DFT_codes/.venv/lib/python3.12/site-packages/
        _gpaw.cpython-312-x86_64-linux-gnu.so
ase:    /home/georgios-vourvachakis/Desktop/DFT_codes/.venv/lib/python3.12/site-packages/ase (version 3.24.0)
numpy:  /home/georgios-vourvachakis/Desktop/DFT_codes/.venv/lib/python3.12/site-packages/numpy (version 2.2.3)
scipy:  /home/georgios-vourvachakis/Desktop/DFT_codes/.venv/lib/python3.12/site-packages/scipy (version 1.15.1)
libxc:  5.2.3
units:  Angstrom and eV
cores: 1
OpenMP: False
OMP_NUM_THREADS: 1

Input parameters:
  eigensolver: rmm-diis
  mode: {ecut: 340.0,
         name: pw}
  occupations: {fixmagmom: True,
                name: fermi-dirac,
                width: 0.0}
  xc: PBE

System changes: positions, numbers, cell, pbc, initial_charges, initial_magmoms 

Initialize ...

species:
  C:
    name: Carbon
    id: 4aa54d4b901d75f77cc0ea3eec22967b
    Z: 6.0
    valence: 4
    core: 2
    charge: 0.0
    file: /home/georgios-vourvachakis/Desktop/DFT_codes/gpaw_datasets/gpaw-setups-0.9.20000/C.PBE.gz
    compensation charges: {type: gauss,
                           rc: 0.20,
                           lmax: 2}
    cutoffs: {filter: 1.14,
              core: 1.14}
    projectors:
      #              energy  rcut
      - 2s(2.00)   -13.751   0.635
      - 2p(2.00)    -5.284   0.635
      -  s          13.461   0.635
      -  p          21.927   0.635
      -  d           0.000   0.635
  
    # Using partial waves for C as LCAO basis

  O:
    name: Oxygen
    id: 32ecd46bf208036f09c70b0ec9a88b78
    Z: 8.0
    valence: 6
    core: 2
    charge: 0.0
    file: /home/georgios-vourvachakis/Desktop/DFT_codes/gpaw_datasets/gpaw-setups-0.9.20000/O.PBE.gz
    compensation charges: {type: gauss,
                           rc: 0.21,
                           lmax: 2}
    cutoffs: {filter: 1.17,
              core: 0.83}
    projectors:
      #              energy  rcut
      - 2s(2.00)   -23.961   0.688
      - 2p(4.00)    -9.029   0.598
      -  s           3.251   0.688
      -  p          18.182   0.598
      -  d           0.000   0.619
  
    # Using partial waves for O as LCAO basis

Reference energy: -3068.480417  # eV

Spin-paired calculation

Convergence criteria:
 Maximum [total energy] change in last 3 cyles: 0.0005 eV / valence electron
 Maximum integral of absolute [dens]ity change: 0.0001 electrons / valence electron
 Maximum integral of absolute [eigenst]ate change: 4e-08 eV^2 / valence electron
 Maximum number of scf [iter]ations: 333
 (Square brackets indicate name in SCF output, whereas a 'c' in
 the SCF output indicates the quantity has converged.)

Symmetries present (total): 8

  ( 1  0  0)  ( 1  0  0)  ( 1  0  0)  ( 1  0  0)  ( 1  0  0)  ( 1  0  0)
  ( 0  1  0)  ( 0  1  0)  ( 0  0  1)  ( 0  0  1)  ( 0  0 -1)  ( 0  0 -1)
  ( 0  0  1)  ( 0  0 -1)  ( 0  1  0)  ( 0 -1  0)  ( 0  1  0)  ( 0 -1  0)

  ( 1  0  0)  ( 1  0  0)
  ( 0 -1  0)  ( 0 -1  0)
  ( 0  0  1)  ( 0  0 -1)

1 k-point (Gamma)
1 k-point in the irreducible part of the Brillouin zone
       k-points in crystal coordinates                weights
   0:     0.00000000    0.00000000    0.00000000          1/1

Wave functions: Plane wave expansion
  Cutoff energy: 340.000 eV
  Number of coefficients: 14243 (reduced to 7122)
  Pulay-stress correction: 0.000000 eV/Ang^3 (de/decut=0.000000)
  Using Numpy's FFT
  ScaLapack parameters: grid=1x1, blocksize=None
  Wavefunction extrapolation:
    Improved wavefunction reuse through dual PAW basis 

Occupation numbers: # Zero width 

Eigensolver
   RMM-DIIS eigensolver
       keep_htpsit: True
       DIIS iterations: 3
       Threshold for DIIS: 1.0e-16
       Limit lambda: False
       use_rayleigh: False
       trial_step: 0.1 

Densities:
  Coarse grid: 45*45*45 grid
  Fine grid: 90*90*90 grid
  Total Charge: 0.000000 

Density mixing:
  Method: separate
  Backend: pulay
  Linear mixing parameter: 0.05
  old densities: 5
  Damping of long wavelength oscillations: 50 

Hamiltonian:
  XC and Coulomb potentials evaluated on a 90*90*90 grid
  Using the PBE Exchange-Correlation functional
  External potential:
    NoExternalPotential
 

XC parameters: PBE with 2 nearest neighbor stencil

Memory estimate:
  Process memory now: 176.14 MiB
  Calculator: 61.37 MiB
    Density: 43.91 MiB
      Arrays: 18.08 MiB
      Localized functions: 18.88 MiB
      Mixer: 6.95 MiB
    Hamiltonian: 12.28 MiB
      Arrays: 11.82 MiB
      XC: 0.00 MiB
      Poisson: 0.00 MiB
      vbar: 0.46 MiB
    Wavefunctions: 5.19 MiB
      Arrays psit_nG: 0.87 MiB
      Eigensolver: 1.41 MiB
      Projections: 0.00 MiB
      Projectors: 1.03 MiB
      PW-descriptor: 1.87 MiB

Total number of cores used: 1

Number of atoms: 2
Number of atomic orbitals: 8
Number of bands in calculation: 8
Number of valence electrons: 10
Bands to converge: occupied

... initialized

Initializing position-dependent things.

Density initialized from atomic densities
Creating initial wave functions:
  8 bands from LCAO basis set

       .------------------------.  
      /|                        |  
     / |                        |  
    /  |                        |  
   /   |                        |  
  /    |                        |  
 *     |                        |  
 |     |                        |  
 |     |                        |  
 |     |       C  O             |  
 |     |                        |  
 |     |                        |  
 |     .------------------------.  
 |    /                        /   
 |   /                        /    
 |  /                        /     
 | /                        /      
 |/                        /       
 *------------------------*        

Positions:
   0 C      4.390000    5.000000    5.000000    ( 0.0000,  0.0000,  0.0000)
   1 O      5.610000    5.000000    5.000000    ( 0.0000,  0.0000,  0.0000)

Unit cell:
           periodic     x           y           z      points  spacing
  1. axis:    no    10.000000    0.000000    0.000000    45     0.2222
  2. axis:    no     0.000000   10.000000    0.000000    45     0.2222
  3. axis:    no     0.000000    0.000000   10.000000    45     0.2222

  Lengths:  10.000000  10.000000  10.000000
  Angles:   90.000000  90.000000  90.000000

Effective grid spacing dv^(1/3) = 0.2222

     iter     time        total  log10-change:
                         energy   eigst   dens
iter:   1 22:10:05    -6.643748
iter:   2 22:10:06   -10.550705   -0.65  -0.94
iter:   3 22:10:06   -10.404715   -1.25  -0.97
iter:   4 22:10:06   -10.358597   -1.25  -1.28
iter:   5 22:10:07   -10.353307   -1.62  -1.77
iter:   6 22:10:07   -10.358320   -3.32  -1.99
iter:   7 22:10:08   -10.353822   -2.05  -2.05
iter:   8 22:10:09   -10.355032c  -3.46  -2.24
iter:   9 22:10:09   -10.354475c  -3.28  -2.47
iter:  10 22:10:10   -10.354641c  -4.14  -2.76
iter:  11 22:10:10   -10.354621c  -4.50  -2.82
iter:  12 22:10:11   -10.354638c  -5.14  -3.24
iter:  13 22:10:11   -10.354644c  -5.05  -3.33
iter:  14 22:10:11   -10.354635c  -5.09  -3.39
iter:  15 22:10:12   -10.354636c  -6.30  -4.04c
iter:  16 22:10:12   -10.354636c  -7.85c -4.23c

Converged after 16 iterations.

Dipole moment: (0.002308, 0.000000, 0.000000) |e|*Ang

Energy contributions relative to reference atoms: (reference = -3068.480417)

Kinetic:        -11.853931
Potential:       +9.301017
External:        +0.000000
XC:              -7.728926
Entropy (-ST):   +0.000000
Local:           -0.072796
SIC:             +0.000000
--------------------------
Free energy:    -10.354636
Extrapolated:   -10.354636

 Band  Eigenvalues  Occupancy
    0    -28.52730    2.00000
    1    -14.19181    2.00000
    2    -10.86765    2.00000
    3    -10.86765    2.00000
    4     -8.96828    2.00000
    5     -2.52120    0.00000
    6     -2.52120    0.00000
    7     -0.23168    0.00000

Fermi level: -5.74474

Gap: 6.447 eV
Transition (v -> c):
  (s=0, k=0, n=4, [0.00, 0.00, 0.00]) -> (s=0, k=0, n=5, [0.00, 0.00, 0.00])
No difference between direct/indirect transitions
Writing to ./CO_analysis/CO.gpw (mode='')

Timing:                              incl.     excl.
-----------------------------------------------------------
Hamiltonian:                         0.222     0.001   0.0% |
 Atomic:                             0.022     0.000   0.0% |
  XC Correction:                     0.021     0.021   0.3% |
 Calculate atomic Hamiltonians:      0.008     0.008   0.1% |
 Communicate:                        0.000     0.000   0.0% |
 Initialize Hamiltonian:             0.000     0.000   0.0% |
 Poisson:                            0.002     0.002   0.0% |
 XC 3D grid:                         0.188     0.188   2.5% ||
LCAO initialization:                 0.030     0.018   0.2% |
 LCAO eigensolver:                   0.002     0.000   0.0% |
  Calculate projections:             0.000     0.000   0.0% |
  DenseAtomicCorrection:             0.000     0.000   0.0% |
  Distribute overlap matrix:         0.000     0.000   0.0% |
  Orbital Layouts:                   0.000     0.000   0.0% |
  Potential matrix:                  0.001     0.001   0.0% |
 LCAO to grid:                       0.007     0.007   0.1% |
 Set positions (LCAO WFS):           0.003     0.000   0.0% |
  Basic WFS set positions:           0.000     0.000   0.0% |
  Basis functions set positions:     0.000     0.000   0.0% |
  P tci:                             0.001     0.001   0.0% |
  ST tci:                            0.001     0.001   0.0% |
  mktci:                             0.001     0.001   0.0% |
PWDescriptor:                        0.003     0.003   0.0% |
SCF-cycle:                           7.037     0.005   0.1% |
 Density:                            3.448     0.000   0.0% |
  Atomic density matrices:           0.005     0.005   0.1% |
  Mix:                               3.241     3.241  42.8% |----------------|
  Multipole moments:                 0.001     0.001   0.0% |
  Pseudo density:                    0.201     0.094   1.2% |
   Symmetrize density:               0.107     0.107   1.4% ||
 Hamiltonian:                        2.937     0.031   0.4% |
  Atomic:                            0.287     0.004   0.1% |
   XC Correction:                    0.283     0.283   3.7% ||
  Calculate atomic Hamiltonians:     0.096     0.096   1.3% ||
  Communicate:                       0.000     0.000   0.0% |
  Poisson:                           0.056     0.056   0.7% |
  XC 3D grid:                        2.467     2.467  32.6% |------------|
 Orthonormalize:                     0.019     0.001   0.0% |
  calc_s_matrix:                     0.003     0.003   0.0% |
  inverse-cholesky:                  0.001     0.001   0.0% |
  projections:                       0.011     0.011   0.1% |
  rotate_psi_s:                      0.003     0.003   0.0% |
 RMM-DIIS:                           0.453     0.010   0.1% |
  Apply H:                           0.163     0.161   2.1% ||
   HMM T:                            0.002     0.002   0.0% |
  Calculate residuals:               0.022     0.022   0.3% |
  DIIS step:                         0.223     0.009   0.1% |
   Calculate residuals:              0.188     0.021   0.3% |
    Apply H:                         0.166     0.164   2.2% ||
     HMM T:                          0.002     0.002   0.0% |
   Construct matrix:                 0.012     0.012   0.2% |
   Linear solve:                     0.002     0.002   0.0% |
   Update trial vectors:             0.009     0.009   0.1% |
   precondition:                     0.002     0.002   0.0% |
  Find lambda:                       0.009     0.009   0.1% |
  Update psi:                        0.003     0.003   0.0% |
  precondition:                      0.011     0.011   0.2% |
  projections:                       0.011     0.011   0.1% |
 Subspace diag:                      0.176     0.001   0.0% |
  calc_h_matrix:                     0.169     0.004   0.1% |
   Apply H:                          0.165     0.162   2.1% ||
    HMM T:                           0.003     0.003   0.0% |
  diagonalize:                       0.002     0.002   0.0% |
  rotate_psi:                        0.004     0.004   0.1% |
Set symmetry:                        0.002     0.002   0.0% |
Other:                               0.282     0.282   3.7% ||
-----------------------------------------------------------
Total:                                         7.576 100.0%

Memory usage: 285.73 MiB
Date: Sat May 10 22:10:12 2025
