
  ___ ___ ___ _ _ _  
 |   |   |_  | | | | 
 | | | | | . | | | | 
 |__ |  _|___|_____|  25.1.0
 |___|_|             

User:   georgios-vourvachakis@georgios-vourvachakis-82K2
Date:   Tue Apr  8 10:46:13 2025
Arch:   x86_64
Pid:    24499
CWD:    /home/georgios-vourvachakis/Desktop/DFT_codes
Python: 3.12.3
gpaw:   /home/georgios-vourvachakis/Desktop/DFT_codes/.venv/lib/python3.12/site-packages/gpaw
_gpaw:  /home/georgios-vourvachakis/Desktop/DFT_codes/.venv/lib/python3.12/site-packages/
        _gpaw.cpython-312-x86_64-linux-gnu.so
ase:    /home/georgios-vourvachakis/Desktop/DFT_codes/.venv/lib/python3.12/site-packages/ase (version 3.24.0)
numpy:  /home/georgios-vourvachakis/Desktop/DFT_codes/.venv/lib/python3.12/site-packages/numpy (version 2.2.3)
scipy:  /home/georgios-vourvachakis/Desktop/DFT_codes/.venv/lib/python3.12/site-packages/scipy (version 1.15.1)
libxc:  5.2.3
units:  Angstrom and eV
cores: 1
OpenMP: False
OMP_NUM_THREADS: 1

Input parameters:
  kpts: [6 6 2]
  mode: {ecut: 480.0,
         name: pw}
  xc: optPBE-vdW

System changes: positions, numbers, cell, pbc, initial_charges, initial_magmoms 

Initialize ...

species:
  W:
    name: Tungsten
    id: c5cdf39eb2772a6eef4e39aea6cd5c6f
    Z: 74.0
    valence: 14
    core: 60
    charge: 0.0
    file: /home/georgios-vourvachakis/Desktop/DFT_codes/gpaw_datasets/gpaw-setups-0.9.20000/W.revPBE.gz
    compensation charges: {type: gauss,
                           rc: 0.40,
                           lmax: 2}
    cutoffs: {filter: 2.36,
              core: 3.02}
    projectors:
      #              energy  rcut
      - 5s(2.00)   -78.785   1.344
      - 6s(2.00)    -5.639   1.344
      - 5p(6.00)   -43.193   1.355
      - 6p(0.00)    -1.336   1.355
      - 5d(4.00)    -4.444   1.228
      -  d          22.768   1.228
  
    # Using partial waves for W as LCAO basis

  Te:
    name: Tellurium
    id: cecded85d882fd4df90837008c85fd5a
    Z: 52.0
    valence: 6
    core: 46
    charge: 0.0
    file: /home/georgios-vourvachakis/Desktop/DFT_codes/gpaw_datasets/gpaw-setups-0.9.20000/Te.revPBE.gz
    compensation charges: {type: gauss,
                           rc: 0.36,
                           lmax: 2}
    cutoffs: {filter: 2.09,
              core: 3.17}
    projectors:
      #              energy  rcut
      - 5s(2.00)   -15.027   1.180
      - 5p(4.00)    -5.913   1.196
      -  s          12.185   1.180
      -  p          21.299   1.196
      -  d           0.000   1.238
  
    # Using partial waves for Te as LCAO basis

Reference energy: -1616751.480151  # eV

Spin-paired calculation

Convergence criteria:
 Maximum [total energy] change in last 3 cyles: 0.0005 eV / valence electron
 Maximum integral of absolute [dens]ity change: 0.0001 electrons / valence electron
 Maximum integral of absolute [eigenst]ate change: 4e-08 eV^2 / valence electron
 Maximum number of scf [iter]ations: 333
 (Square brackets indicate name in SCF output, whereas a 'c' in
 the SCF output indicates the quantity has converged.)

Symmetries present (total): 6

  ( 1  1  0)  ( 1  0  0)  ( 0  1  0)  ( 0 -1  0)  (-1  0  0)  (-1 -1  0)
  ( 0 -1  0)  ( 0  1  0)  (-1 -1  0)  (-1  0  0)  ( 1  1  0)  ( 1  0  0)
  ( 0  0  1)  ( 0  0  1)  ( 0  0  1)  ( 0  0  1)  ( 0  0  1)  ( 0  0  1)
Note: your k-points are not as symmetric as your crystal!

72 k-points: 6 x 6 x 2 Monkhorst-Pack grid
21 k-points in the irreducible part of the Brillouin zone
       k-points in crystal coordinates                weights
   0:     0.08333333   -0.08333333   -0.25000000          2/72
   1:     0.08333333   -0.08333333    0.25000000          2/72
   2:     0.08333333    0.08333333    0.25000000          4/72
   3:     0.25000000   -0.25000000   -0.25000000          2/72
   4:     0.25000000   -0.25000000    0.25000000          2/72
   5:     0.25000000   -0.08333333   -0.25000000          4/72
   6:     0.25000000   -0.08333333    0.25000000          4/72
   7:     0.25000000    0.08333333   -0.25000000          4/72
   8:     0.25000000    0.08333333    0.25000000          4/72
   9:     0.25000000    0.25000000    0.25000000          4/72
          ...
  20:     0.41666667    0.41666667    0.25000000          4/72

Wave functions: Plane wave expansion
  Cutoff energy: 480.000 eV
  Number of coefficients (min, max): 3665, 3709
  Pulay-stress correction: 0.000000 eV/Ang^3 (de/decut=0.000000)
  Using Numpy's FFT
  ScaLapack parameters: grid=1x1, blocksize=None
  Wavefunction extrapolation:
    Improved wavefunction reuse through dual PAW basis 

Occupation numbers: Fermi-Dirac:
  width: 0.1000  # eV
 

Eigensolver
   Davidson(niter=2) 

Densities:
  Coarse grid: 18*18*72 grid
  Fine grid: 36*36*144 grid
  Total Charge: 0.000000 

Density mixing:
  Method: separate
  Backend: pulay
  Linear mixing parameter: 0.05
  old densities: 5
  Damping of long wavelength oscillations: 50 

Hamiltonian:
  XC and Coulomb potentials evaluated on a 36*36*144 grid
  Using the optPBE-vdW Exchange-Correlation functional
  External potential:
    NoExternalPotential
 

XC parameters: optPBE-vdW with 2 nearest neighbor stencil

Memory estimate:
  Process memory now: 453.68 MiB
  Calculator: 74.64 MiB
    Density: 11.28 MiB
      Arrays: 4.63 MiB
      Localized functions: 4.88 MiB
      Mixer: 1.78 MiB
    Hamiltonian: 3.14 MiB
      Arrays: 3.03 MiB
      XC: 0.00 MiB
      Poisson: 0.00 MiB
      vbar: 0.12 MiB
    Wavefunctions: 60.21 MiB
      Arrays psit_nG: 42.79 MiB
      Eigensolver: 2.52 MiB
      Projections: 1.02 MiB
      Projectors: 11.81 MiB
      PW-descriptor: 2.08 MiB

Total number of cores used: 1

Number of atoms: 6
Number of atomic orbitals: 42
Number of bands in calculation: 36
Number of valence electrons: 52
Bands to converge: occupied

... initialized

Initializing position-dependent things.

Density initialized from atomic densities
Creating initial wave functions:
  36 bands from LCAO basis set

                  
                  
                  
                  
                  
       Te         
                  
                  
                  
                  
                  
                  
         Te       
                  
                  
                  
       W          
                  
                  
                  
                  
                  
                  
         W        
                  
         Te       
                  
                  
                  
                  
                  
                  
                  
                  
                  
       Te         
                  
                  
                  
                  

Positions:
   0 W      1.773000    1.023642    3.542500    ( 0.0000,  0.0000,  0.0000)
   1 W      1.773000   -1.023642   10.627500    ( 0.0000,  0.0000,  0.0000)
   2 Te     1.773000    1.023642   12.327900    ( 0.0000,  0.0000,  0.0000)
   3 Te     1.773000   -1.023642   -5.242900    ( 0.0000,  0.0000,  0.0000)
   4 Te     1.773000    1.023642    1.842100    ( 0.0000,  0.0000,  0.0000)
   5 Te     1.773000   -1.023642   19.412900    ( 0.0000,  0.0000,  0.0000)

Unit cell:
           periodic     x           y           z      points  spacing
  1. axis:    yes    1.773000   -3.070926    0.000000    18     0.1706
  2. axis:    yes    1.773000    3.070926    0.000000    18     0.1706
  3. axis:    yes    0.000000    0.000000   14.170000    72     0.1968

  Lengths:   3.546000   3.546000  14.170000
  Angles:   90.000000  90.000000 120.000000

Effective grid spacing dv^(1/3) = 0.1877

     iter     time        total  log10-change:
                         energy   eigst   dens
iter:   1 10:46:23   -93.203524
iter:   2 10:46:28   -91.138676   -0.72  -0.96
iter:   3 10:46:33   -89.851366   -1.27  -1.11
iter:   4 10:46:40   -89.144547   -1.46  -1.23
iter:   5 10:46:45   -88.825055   -1.67  -1.41
iter:   6 10:46:50   -88.816776   -2.51  -1.81
iter:   7 10:46:55   -88.813254c  -3.43  -1.88
iter:   8 10:46:59   -88.824092c  -2.63  -1.92
iter:   9 10:47:07   -88.819702c  -3.27  -2.26
iter:  10 10:47:57   -88.821070c  -3.81  -2.57
iter:  11 10:48:44   -88.819650c  -4.02  -2.62
iter:  12 10:48:50   -88.819539c  -4.95  -3.01
iter:  13 10:48:55   -88.819408c  -5.08  -3.09
iter:  14 10:49:00   -88.819397c  -5.72  -3.22
iter:  15 10:49:04   -88.819401c  -5.80  -3.27
iter:  16 10:49:09   -88.819452c  -5.89  -3.42
iter:  17 10:49:14   -88.819442c  -6.58  -3.60
iter:  18 10:49:21   -88.819422c  -6.86  -3.66
iter:  19 10:49:26   -88.819423c  -7.18  -3.75
iter:  20 10:49:31   -88.819453c  -6.55  -3.85
iter:  21 10:49:35   -88.819457c  -7.81c -4.11c

Converged after 21 iterations.

Dipole moment: (-0.000000, -0.000000, -0.184680) |e|*Ang

Energy contributions relative to reference atoms: (reference = -1616751.480151)

Kinetic:       +531.963390
Potential:     -450.239823
External:        +0.000000
XC:            -168.532617
Entropy (-ST):   -0.067133
Local:           -1.976841
SIC:             +0.000000
--------------------------
Free energy:    -88.853024
Extrapolated:   -88.819457

Showing only first 2 kpts
 Kpt  Band  Eigenvalues  Occupancy
  0    24      7.37658    1.99999
  0    25      8.48245    1.55528
  0    26      9.82341    0.00001
  0    27      9.94571    0.00000

  1    24      7.37658    1.99999
  1    25      8.48245    1.55528
  1    26      9.82341    0.00001
  1    27      9.94571    0.00000


Fermi level: 8.60765

No gap
No difference between direct/indirect transitions
Timing:                              incl.     excl.
-----------------------------------------------------------
Hamiltonian:                         2.243     0.001   0.0% |
 Atomic:                             0.150     0.000   0.0% |
  XC Correction:                     0.149     0.149   0.1% |
 Calculate atomic Hamiltonians:      0.006     0.006   0.0% |
 Communicate:                        0.000     0.000   0.0% |
 Initialize Hamiltonian:             0.000     0.000   0.0% |
 Poisson:                            0.000     0.000   0.0% |
 XC 3D grid:                         2.086     0.131   0.1% |
  VdW-DF integral:                   1.955     0.037   0.0% |
   Convolution:                      0.089     0.089   0.0% |
   FFT:                              0.039     0.039   0.0% |
   gather:                           0.001     0.001   0.0% |
   hmm1:                             0.002     0.002   0.0% |
   hmm2:                             0.096     0.096   0.0% |
   iFFT:                             0.050     0.050   0.0% |
   potential:                        0.098     0.001   0.0% |
    collect:                         0.000     0.000   0.0% |
    p1:                              0.012     0.012   0.0% |
    p2:                              0.085     0.085   0.0% |
    sum:                             0.000     0.000   0.0% |
   splines:                          1.544     1.544   0.8% |
LCAO initialization:                 4.156     0.051   0.0% |
 LCAO eigensolver:                   1.745     0.001   0.0% |
  Calculate projections:             0.002     0.002   0.0% |
  DenseAtomicCorrection:             0.005     0.005   0.0% |
  Distribute overlap matrix:         0.001     0.001   0.0% |
  Orbital Layouts:                   0.990     0.990   0.5% |
  Potential matrix:                  0.144     0.144   0.1% |
  Sum over cells:                    0.604     0.604   0.3% |
 LCAO to grid:                       2.182     2.182   1.1% |
 Set positions (LCAO WFS):           0.178     0.024   0.0% |
  Basic WFS set positions:           0.000     0.000   0.0% |
  Basis functions set positions:     0.000     0.000   0.0% |
  P tci:                             0.099     0.099   0.0% |
  ST tci:                            0.050     0.050   0.0% |
  mktci:                             0.004     0.004   0.0% |
PWDescriptor:                        0.011     0.011   0.0% |
SCF-cycle:                         195.458     0.255   0.1% |
 Davidson:                         169.902     9.470   4.7% |-|
  Apply H:                          17.129    16.850   8.3% |--|
   HMM T:                            0.279     0.279   0.1% |
  Subspace diag:                    19.193     0.036   0.0% |
   calc_h_matrix:                   17.830     0.758   0.4% |
    Apply H:                        17.072    16.803   8.3% |--|
     HMM T:                          0.269     0.269   0.1% |
   diagonalize:                      0.190     0.190   0.1% |
   rotate_psi:                       1.137     1.137   0.6% |
  calc. matrices:                   36.366     4.237   2.1% ||
   Apply H:                         32.128    31.602  15.6% |-----|
    HMM T:                           0.526     0.526   0.3% |
  diagonalize:                      85.651    85.651  42.4% |----------------|
  rotate_psi:                        2.093     2.093   1.0% |
 Density:                            8.647     0.000   0.0% |
  Atomic density matrices:           0.043     0.043   0.0% |
  Mix:                               2.829     2.829   1.4% ||
  Multipole moments:                 0.002     0.002   0.0% |
  Pseudo density:                    5.772     5.742   2.8% ||
   Symmetrize density:               0.030     0.030   0.0% |
 Hamiltonian:                       16.537     0.018   0.0% |
  Atomic:                            3.456     0.012   0.0% |
   XC Correction:                    3.444     3.444   1.7% ||
  Calculate atomic Hamiltonians:     0.156     0.156   0.1% |
  Communicate:                       0.000     0.000   0.0% |
  Poisson:                           0.011     0.011   0.0% |
  XC 3D grid:                       12.895     2.705   1.3% ||
   VdW-DF integral:                 10.191     1.709   0.8% |
    Convolution:                     2.373     2.373   1.2% |
    FFT:                             0.676     0.676   0.3% |
    gather:                          0.008     0.008   0.0% |
    hmm1:                            0.034     0.034   0.0% |
    hmm2:                            1.695     1.695   0.8% |
    iFFT:                            1.193     1.193   0.6% |
    potential:                       2.503     0.021   0.0% |
     collect:                        0.000     0.000   0.0% |
     p1:                             0.260     0.260   0.1% |
     p2:                             2.222     2.222   1.1% |
     sum:                            0.000     0.000   0.0% |
    splines:                         0.000     0.000   0.0% |
 Orthonormalize:                     0.117     0.001   0.0% |
  calc_s_matrix:                     0.017     0.017   0.0% |
  inverse-cholesky:                  0.002     0.002   0.0% |
  projections:                       0.073     0.073   0.0% |
  rotate_psi_s:                      0.023     0.023   0.0% |
Set symmetry:                        0.002     0.002   0.0% |
Other:                               0.215     0.215   0.1% |
-----------------------------------------------------------
Total:                                       202.085 100.0%

Memory usage: 453.68 MiB
Date: Tue Apr  8 10:49:35 2025
