
  ___ ___ ___ _ _ _  
 |   |   |_  | | | | 
 | | | | | . | | | | 
 |__ |  _|___|_____|  25.1.0
 |___|_|             

User:   georgios-vourvachakis@georgios-vourvachakis-82K2
Date:   Tue Apr  8 10:34:27 2025
Arch:   x86_64
Pid:    24499
CWD:    /home/georgios-vourvachakis/Desktop/DFT_codes
Python: 3.12.3
gpaw:   /home/georgios-vourvachakis/Desktop/DFT_codes/.venv/lib/python3.12/site-packages/gpaw
_gpaw:  /home/georgios-vourvachakis/Desktop/DFT_codes/.venv/lib/python3.12/site-packages/
        _gpaw.cpython-312-x86_64-linux-gnu.so
ase:    /home/georgios-vourvachakis/Desktop/DFT_codes/.venv/lib/python3.12/site-packages/ase (version 3.24.0)
numpy:  /home/georgios-vourvachakis/Desktop/DFT_codes/.venv/lib/python3.12/site-packages/numpy (version 2.2.3)
scipy:  /home/georgios-vourvachakis/Desktop/DFT_codes/.venv/lib/python3.12/site-packages/scipy (version 1.15.1)
libxc:  5.2.3
units:  Angstrom and eV
cores: 1
OpenMP: False
OMP_NUM_THREADS: 1

Input parameters:
  kpts: [6 6 2]
  mode: {ecut: 480.0,
         name: pw}
  xc: optPBE-vdW

System changes: positions, numbers, cell, pbc, initial_charges, initial_magmoms 

Initialize ...

species:
  W:
    name: Tungsten
    id: c5cdf39eb2772a6eef4e39aea6cd5c6f
    Z: 74.0
    valence: 14
    core: 60
    charge: 0.0
    file: /home/georgios-vourvachakis/Desktop/DFT_codes/gpaw_datasets/gpaw-setups-0.9.20000/W.revPBE.gz
    compensation charges: {type: gauss,
                           rc: 0.40,
                           lmax: 2}
    cutoffs: {filter: 2.36,
              core: 3.02}
    projectors:
      #              energy  rcut
      - 5s(2.00)   -78.785   1.344
      - 6s(2.00)    -5.639   1.344
      - 5p(6.00)   -43.193   1.355
      - 6p(0.00)    -1.336   1.355
      - 5d(4.00)    -4.444   1.228
      -  d          22.768   1.228
  
    # Using partial waves for W as LCAO basis

  Te:
    name: Tellurium
    id: cecded85d882fd4df90837008c85fd5a
    Z: 52.0
    valence: 6
    core: 46
    charge: 0.0
    file: /home/georgios-vourvachakis/Desktop/DFT_codes/gpaw_datasets/gpaw-setups-0.9.20000/Te.revPBE.gz
    compensation charges: {type: gauss,
                           rc: 0.36,
                           lmax: 2}
    cutoffs: {filter: 2.09,
              core: 3.17}
    projectors:
      #              energy  rcut
      - 5s(2.00)   -15.027   1.180
      - 5p(4.00)    -5.913   1.196
      -  s          12.185   1.180
      -  p          21.299   1.196
      -  d           0.000   1.238
  
    # Using partial waves for Te as LCAO basis

Reference energy: -1616751.480151  # eV

Spin-paired calculation

Convergence criteria:
 Maximum [total energy] change in last 3 cyles: 0.0005 eV / valence electron
 Maximum integral of absolute [dens]ity change: 0.0001 electrons / valence electron
 Maximum integral of absolute [eigenst]ate change: 4e-08 eV^2 / valence electron
 Maximum number of scf [iter]ations: 333
 (Square brackets indicate name in SCF output, whereas a 'c' in
 the SCF output indicates the quantity has converged.)

Symmetries present (total): 6

  ( 1  1  0)  ( 1  0  0)  ( 0  1  0)  ( 0 -1  0)  (-1  0  0)  (-1 -1  0)
  ( 0 -1  0)  ( 0  1  0)  (-1 -1  0)  (-1  0  0)  ( 1  1  0)  ( 1  0  0)
  ( 0  0  1)  ( 0  0  1)  ( 0  0  1)  ( 0  0  1)  ( 0  0  1)  ( 0  0  1)
Note: your k-points are not as symmetric as your crystal!

72 k-points: 6 x 6 x 2 Monkhorst-Pack grid
21 k-points in the irreducible part of the Brillouin zone
       k-points in crystal coordinates                weights
   0:     0.08333333   -0.08333333   -0.25000000          2/72
   1:     0.08333333   -0.08333333    0.25000000          2/72
   2:     0.08333333    0.08333333    0.25000000          4/72
   3:     0.25000000   -0.25000000   -0.25000000          2/72
   4:     0.25000000   -0.25000000    0.25000000          2/72
   5:     0.25000000   -0.08333333   -0.25000000          4/72
   6:     0.25000000   -0.08333333    0.25000000          4/72
   7:     0.25000000    0.08333333   -0.25000000          4/72
   8:     0.25000000    0.08333333    0.25000000          4/72
   9:     0.25000000    0.25000000    0.25000000          4/72
          ...
  20:     0.41666667    0.41666667    0.25000000          4/72

Wave functions: Plane wave expansion
  Cutoff energy: 480.000 eV
  Number of coefficients (min, max): 3604, 3637
  Pulay-stress correction: 0.000000 eV/Ang^3 (de/decut=0.000000)
  Using Numpy's FFT
  ScaLapack parameters: grid=1x1, blocksize=None
  Wavefunction extrapolation:
    Improved wavefunction reuse through dual PAW basis 

Occupation numbers: Fermi-Dirac:
  width: 0.1000  # eV
 

Eigensolver
   Davidson(niter=2) 

Densities:
  Coarse grid: 18*18*72 grid
  Fine grid: 36*36*144 grid
  Total Charge: 0.000000 

Density mixing:
  Method: separate
  Backend: pulay
  Linear mixing parameter: 0.05
  old densities: 5
  Damping of long wavelength oscillations: 50 

Hamiltonian:
  XC and Coulomb potentials evaluated on a 36*36*144 grid
  Using the optPBE-vdW Exchange-Correlation functional
  External potential:
    NoExternalPotential
 

XC parameters: optPBE-vdW with 2 nearest neighbor stencil

Memory estimate:
  Process memory now: 444.02 MiB
  Calculator: 73.48 MiB
    Density: 11.22 MiB
      Arrays: 4.63 MiB
      Localized functions: 4.81 MiB
      Mixer: 1.78 MiB
    Hamiltonian: 3.14 MiB
      Arrays: 3.03 MiB
      XC: 0.00 MiB
      Poisson: 0.00 MiB
      vbar: 0.12 MiB
    Wavefunctions: 59.12 MiB
      Arrays psit_nG: 41.96 MiB
      Eigensolver: 2.47 MiB
      Projections: 1.02 MiB
      Projectors: 11.62 MiB
      PW-descriptor: 2.06 MiB

Total number of cores used: 1

Number of atoms: 6
Number of atomic orbitals: 42
Number of bands in calculation: 36
Number of valence electrons: 52
Bands to converge: occupied

... initialized

Initializing position-dependent things.

Density initialized from atomic densities
Creating initial wave functions:
  36 bands from LCAO basis set

                  
                  
                  
                  
                  
       Te         
                  
                  
                  
                  
                  
                  
         Te       
                  
                  
                  
       W          
                  
                  
                  
                  
                  
                  
         W        
                  
         Te       
                  
                  
                  
                  
                  
                  
                  
                  
                  
       Te         
                  
                  
                  
                  

Positions:
   0 W      1.760500    1.016425    3.536250    ( 0.0000,  0.0000,  0.0000)
   1 W      1.760500   -1.016425   10.608750    ( 0.0000,  0.0000,  0.0000)
   2 Te     1.760500    1.016425   12.306150    ( 0.0000,  0.0000,  0.0000)
   3 Te     1.760500   -1.016425   -5.233650    ( 0.0000,  0.0000,  0.0000)
   4 Te     1.760500    1.016425    1.838850    ( 0.0000,  0.0000,  0.0000)
   5 Te     1.760500   -1.016425   19.378650    ( 0.0000,  0.0000,  0.0000)

Unit cell:
           periodic     x           y           z      points  spacing
  1. axis:    yes    1.760500   -3.049275    0.000000    18     0.1694
  2. axis:    yes    1.760500    3.049275    0.000000    18     0.1694
  3. axis:    yes    0.000000    0.000000   14.145000    72     0.1965

  Lengths:   3.521000   3.521000  14.145000
  Angles:   90.000000  90.000000 120.000000

Effective grid spacing dv^(1/3) = 0.1867

     iter     time        total  log10-change:
                         energy   eigst   dens
iter:   1 10:34:36   -92.689445
iter:   2 10:34:41   -90.591369   -0.72  -0.96
iter:   3 10:34:46   -89.271039   -1.26  -1.11
iter:   4 10:34:50   -88.574898   -1.45  -1.23
iter:   5 10:34:55   -88.247032   -1.67  -1.41
iter:   6 10:35:00   -88.239072   -2.54  -1.82
iter:   7 10:35:04   -88.236740c  -3.54  -1.88
iter:   8 10:35:09   -88.246583c  -2.60  -1.91
iter:   9 10:35:14   -88.242422c  -3.27  -2.25
iter:  10 10:35:18   -88.243144c  -4.03  -2.60
iter:  11 10:35:23   -88.242535c  -4.02  -2.66
iter:  12 10:35:28   -88.242208c  -4.35  -2.90
iter:  13 10:35:32   -88.242200c  -5.17  -3.14
iter:  14 10:35:37   -88.242025c  -5.64  -3.19
iter:  15 10:35:42   -88.242052c  -6.44  -3.34
iter:  16 10:35:46   -88.242140c  -6.24  -3.41
iter:  17 10:35:51   -88.242143c  -7.12  -3.55
iter:  18 10:35:56   -88.242112c  -6.09  -3.60
iter:  19 10:36:00   -88.242116c  -7.05  -4.12c
iter:  20 10:36:06   -88.242109c  -7.51c -4.19c

Converged after 20 iterations.

Dipole moment: (-0.000000, -0.000000, -0.178232) |e|*Ang

Energy contributions relative to reference atoms: (reference = -1616751.480151)

Kinetic:       +540.255084
Potential:     -456.859117
External:        +0.000000
XC:            -169.637544
Entropy (-ST):   -0.066022
Local:           -1.967521
SIC:             +0.000000
--------------------------
Free energy:    -88.275120
Extrapolated:   -88.242109

Showing only first 2 kpts
 Kpt  Band  Eigenvalues  Occupancy
  0    24      7.54031    1.99999
  0    25      8.65069    1.64158
  0    26     10.08811    0.00001
  0    27     10.21201    0.00000

  1    24      7.54031    1.99999
  1    25      8.65069    1.64158
  1    26     10.08811    0.00001
  1    27     10.21201    0.00000


Fermi level: 8.80286

No gap
No difference between direct/indirect transitions
Timing:                              incl.     excl.
-----------------------------------------------------------
Hamiltonian:                         2.135     0.001   0.0% |
 Atomic:                             0.149     0.000   0.0% |
  XC Correction:                     0.149     0.149   0.1% |
 Calculate atomic Hamiltonians:      0.006     0.006   0.0% |
 Communicate:                        0.000     0.000   0.0% |
 Initialize Hamiltonian:             0.000     0.000   0.0% |
 Poisson:                            0.000     0.000   0.0% |
 XC 3D grid:                         1.979     0.133   0.1% |
  VdW-DF integral:                   1.846     0.019   0.0% |
   Convolution:                      0.079     0.079   0.1% |
   FFT:                              0.022     0.022   0.0% |
   gather:                           0.000     0.000   0.0% |
   hmm1:                             0.001     0.001   0.0% |
   hmm2:                             0.065     0.065   0.1% |
   iFFT:                             0.041     0.041   0.0% |
   potential:                        0.084     0.001   0.0% |
    collect:                         0.000     0.000   0.0% |
    p1:                              0.011     0.011   0.0% |
    p2:                              0.073     0.073   0.1% |
    sum:                             0.000     0.000   0.0% |
   splines:                          1.533     1.533   1.5% ||
LCAO initialization:                 3.651     0.050   0.0% |
 LCAO eigensolver:                   1.481     0.001   0.0% |
  Calculate projections:             0.002     0.002   0.0% |
  DenseAtomicCorrection:             0.004     0.004   0.0% |
  Distribute overlap matrix:         0.000     0.000   0.0% |
  Orbital Layouts:                   0.709     0.709   0.7% |
  Potential matrix:                  0.146     0.146   0.1% |
  Sum over cells:                    0.619     0.619   0.6% |
 LCAO to grid:                       1.976     1.976   2.0% ||
 Set positions (LCAO WFS):           0.145     0.024   0.0% |
  Basic WFS set positions:           0.000     0.000   0.0% |
  Basis functions set positions:     0.000     0.000   0.0% |
  P tci:                             0.066     0.066   0.1% |
  ST tci:                            0.050     0.050   0.0% |
  mktci:                             0.004     0.004   0.0% |
PWDescriptor:                        0.011     0.011   0.0% |
SCF-cycle:                          93.853     0.238   0.2% |
 Davidson:                          75.883     7.870   7.9% |--|
  Apply H:                          14.331    14.160  14.2% |-----|
   HMM T:                            0.171     0.171   0.2% |
  Subspace diag:                    16.064     0.025   0.0% |
   calc_h_matrix:                   14.960     0.605   0.6% |
    Apply H:                        14.355    14.173  14.2% |-----|
     HMM T:                          0.182     0.182   0.2% |
   diagonalize:                      0.174     0.174   0.2% |
   rotate_psi:                       0.905     0.905   0.9% |
  calc. matrices:                   32.316     3.462   3.5% ||
   Apply H:                         28.855    28.510  28.5% |----------|
    HMM T:                           0.345     0.345   0.3% |
  diagonalize:                       3.572     3.572   3.6% ||
  rotate_psi:                        1.730     1.730   1.7% ||
 Density:                            6.144     0.000   0.0% |
  Atomic density matrices:           0.035     0.035   0.0% |
  Mix:                               1.407     1.407   1.4% ||
  Multipole moments:                 0.002     0.002   0.0% |
  Pseudo density:                    4.700     4.673   4.7% |-|
   Symmetrize density:               0.027     0.027   0.0% |
 Hamiltonian:                       11.474     0.015   0.0% |
  Atomic:                            2.862     0.008   0.0% |
   XC Correction:                    2.853     2.853   2.9% ||
  Calculate atomic Hamiltonians:     0.095     0.095   0.1% |
  Communicate:                       0.000     0.000   0.0% |
  Poisson:                           0.011     0.011   0.0% |
  XC 3D grid:                        8.492     2.232   2.2% ||
   VdW-DF integral:                  6.260     0.266   0.3% |
    Convolution:                     1.878     1.878   1.9% ||
    FFT:                             0.411     0.411   0.4% |
    gather:                          0.007     0.007   0.0% |
    hmm1:                            0.024     0.024   0.0% |
    hmm2:                            1.161     1.161   1.2% |
    iFFT:                            0.865     0.865   0.9% |
    potential:                       1.648     0.013   0.0% |
     collect:                        0.000     0.000   0.0% |
     p1:                             0.235     0.235   0.2% |
     p2:                             1.400     1.400   1.4% ||
     sum:                            0.000     0.000   0.0% |
    splines:                         0.000     0.000   0.0% |
 Orthonormalize:                     0.114     0.001   0.0% |
  calc_s_matrix:                     0.016     0.016   0.0% |
  inverse-cholesky:                  0.002     0.002   0.0% |
  projections:                       0.071     0.071   0.1% |
  rotate_psi_s:                      0.023     0.023   0.0% |
Set symmetry:                        0.002     0.002   0.0% |
Other:                               0.207     0.207   0.2% |
-----------------------------------------------------------
Total:                                        99.860 100.0%

Memory usage: 447.86 MiB
Date: Tue Apr  8 10:36:06 2025
