
  ___ ___ ___ _ _ _  
 |   |   |_  | | | | 
 | | | | | . | | | | 
 |__ |  _|___|_____|  25.1.0
 |___|_|             

User:   georgios-vourvachakis@georgios-vourvachakis-82K2
Date:   Tue Apr  8 10:32:57 2025
Arch:   x86_64
Pid:    24499
CWD:    /home/georgios-vourvachakis/Desktop/DFT_codes
Python: 3.12.3
gpaw:   /home/georgios-vourvachakis/Desktop/DFT_codes/.venv/lib/python3.12/site-packages/gpaw
_gpaw:  /home/georgios-vourvachakis/Desktop/DFT_codes/.venv/lib/python3.12/site-packages/
        _gpaw.cpython-312-x86_64-linux-gnu.so
ase:    /home/georgios-vourvachakis/Desktop/DFT_codes/.venv/lib/python3.12/site-packages/ase (version 3.24.0)
numpy:  /home/georgios-vourvachakis/Desktop/DFT_codes/.venv/lib/python3.12/site-packages/numpy (version 2.2.3)
scipy:  /home/georgios-vourvachakis/Desktop/DFT_codes/.venv/lib/python3.12/site-packages/scipy (version 1.15.1)
libxc:  5.2.3
units:  Angstrom and eV
cores: 1
OpenMP: False
OMP_NUM_THREADS: 1

Input parameters:
  kpts: [6 6 2]
  mode: {ecut: 480.0,
         name: pw}
  xc: optPBE-vdW

System changes: positions, numbers, cell, pbc, initial_charges, initial_magmoms 

Initialize ...

species:
  W:
    name: Tungsten
    id: c5cdf39eb2772a6eef4e39aea6cd5c6f
    Z: 74.0
    valence: 14
    core: 60
    charge: 0.0
    file: /home/georgios-vourvachakis/Desktop/DFT_codes/gpaw_datasets/gpaw-setups-0.9.20000/W.revPBE.gz
    compensation charges: {type: gauss,
                           rc: 0.40,
                           lmax: 2}
    cutoffs: {filter: 2.36,
              core: 3.02}
    projectors:
      #              energy  rcut
      - 5s(2.00)   -78.785   1.344
      - 6s(2.00)    -5.639   1.344
      - 5p(6.00)   -43.193   1.355
      - 6p(0.00)    -1.336   1.355
      - 5d(4.00)    -4.444   1.228
      -  d          22.768   1.228
  
    # Using partial waves for W as LCAO basis

  Te:
    name: Tellurium
    id: cecded85d882fd4df90837008c85fd5a
    Z: 52.0
    valence: 6
    core: 46
    charge: 0.0
    file: /home/georgios-vourvachakis/Desktop/DFT_codes/gpaw_datasets/gpaw-setups-0.9.20000/Te.revPBE.gz
    compensation charges: {type: gauss,
                           rc: 0.36,
                           lmax: 2}
    cutoffs: {filter: 2.09,
              core: 3.17}
    projectors:
      #              energy  rcut
      - 5s(2.00)   -15.027   1.180
      - 5p(4.00)    -5.913   1.196
      -  s          12.185   1.180
      -  p          21.299   1.196
      -  d           0.000   1.238
  
    # Using partial waves for Te as LCAO basis

Reference energy: -1616751.480151  # eV

Spin-paired calculation

Convergence criteria:
 Maximum [total energy] change in last 3 cyles: 0.0005 eV / valence electron
 Maximum integral of absolute [dens]ity change: 0.0001 electrons / valence electron
 Maximum integral of absolute [eigenst]ate change: 4e-08 eV^2 / valence electron
 Maximum number of scf [iter]ations: 333
 (Square brackets indicate name in SCF output, whereas a 'c' in
 the SCF output indicates the quantity has converged.)

Symmetries present (total): 6

  ( 1  1  0)  ( 1  0  0)  ( 0  1  0)  ( 0 -1  0)  (-1  0  0)  (-1 -1  0)
  ( 0 -1  0)  ( 0  1  0)  (-1 -1  0)  (-1  0  0)  ( 1  1  0)  ( 1  0  0)
  ( 0  0  1)  ( 0  0  1)  ( 0  0  1)  ( 0  0  1)  ( 0  0  1)  ( 0  0  1)
Note: your k-points are not as symmetric as your crystal!

72 k-points: 6 x 6 x 2 Monkhorst-Pack grid
21 k-points in the irreducible part of the Brillouin zone
       k-points in crystal coordinates                weights
   0:     0.08333333   -0.08333333   -0.25000000          2/72
   1:     0.08333333   -0.08333333    0.25000000          2/72
   2:     0.08333333    0.08333333    0.25000000          4/72
   3:     0.25000000   -0.25000000   -0.25000000          2/72
   4:     0.25000000   -0.25000000    0.25000000          2/72
   5:     0.25000000   -0.08333333   -0.25000000          4/72
   6:     0.25000000   -0.08333333    0.25000000          4/72
   7:     0.25000000    0.08333333   -0.25000000          4/72
   8:     0.25000000    0.08333333    0.25000000          4/72
   9:     0.25000000    0.25000000    0.25000000          4/72
          ...
  20:     0.41666667    0.41666667    0.25000000          4/72

Wave functions: Plane wave expansion
  Cutoff energy: 480.000 eV
  Number of coefficients (min, max): 3600, 3635
  Pulay-stress correction: 0.000000 eV/Ang^3 (de/decut=0.000000)
  Using Numpy's FFT
  ScaLapack parameters: grid=1x1, blocksize=None
  Wavefunction extrapolation:
    Improved wavefunction reuse through dual PAW basis 

Occupation numbers: Fermi-Dirac:
  width: 0.1000  # eV
 

Eigensolver
   Davidson(niter=2) 

Densities:
  Coarse grid: 18*18*72 grid
  Fine grid: 36*36*144 grid
  Total Charge: 0.000000 

Density mixing:
  Method: separate
  Backend: pulay
  Linear mixing parameter: 0.05
  old densities: 5
  Damping of long wavelength oscillations: 50 

Hamiltonian:
  XC and Coulomb potentials evaluated on a 36*36*144 grid
  Using the optPBE-vdW Exchange-Correlation functional
  External potential:
    NoExternalPotential
 

XC parameters: optPBE-vdW with 2 nearest neighbor stencil

Memory estimate:
  Process memory now: 434.89 MiB
  Calculator: 73.43 MiB
    Density: 11.21 MiB
      Arrays: 4.63 MiB
      Localized functions: 4.80 MiB
      Mixer: 1.78 MiB
    Hamiltonian: 3.14 MiB
      Arrays: 3.03 MiB
      XC: 0.00 MiB
      Poisson: 0.00 MiB
      vbar: 0.12 MiB
    Wavefunctions: 59.08 MiB
      Arrays psit_nG: 41.93 MiB
      Eigensolver: 2.47 MiB
      Projections: 1.02 MiB
      Projectors: 11.60 MiB
      PW-descriptor: 2.05 MiB

Total number of cores used: 1

Number of atoms: 6
Number of atomic orbitals: 42
Number of bands in calculation: 36
Number of valence electrons: 52
Bands to converge: occupied

... initialized

Initializing position-dependent things.

Density initialized from atomic densities
Creating initial wave functions:
  36 bands from LCAO basis set

                  
                  
                  
                  
                  
       Te         
                  
                  
                  
                  
                  
                  
         Te       
                  
                  
                  
       W          
                  
                  
                  
                  
                  
                  
         W        
                  
         Te       
                  
                  
                  
                  
                  
                  
                  
                  
                  
       Te         
                  
                  
                  
                  

Positions:
   0 W      1.760500    1.016425    3.530000    ( 0.0000,  0.0000,  0.0000)
   1 W      1.760500   -1.016425   10.590000    ( 0.0000,  0.0000,  0.0000)
   2 Te     1.760500    1.016425   12.284400    ( 0.0000,  0.0000,  0.0000)
   3 Te     1.760500   -1.016425   -5.224400    ( 0.0000,  0.0000,  0.0000)
   4 Te     1.760500    1.016425    1.835600    ( 0.0000,  0.0000,  0.0000)
   5 Te     1.760500   -1.016425   19.344400    ( 0.0000,  0.0000,  0.0000)

Unit cell:
           periodic     x           y           z      points  spacing
  1. axis:    yes    1.760500   -3.049275    0.000000    18     0.1694
  2. axis:    yes    1.760500    3.049275    0.000000    18     0.1694
  3. axis:    yes    0.000000    0.000000   14.120000    72     0.1961

  Lengths:   3.521000   3.521000  14.120000
  Angles:   90.000000  90.000000 120.000000

Effective grid spacing dv^(1/3) = 0.1866

     iter     time        total  log10-change:
                         energy   eigst   dens
iter:   1 10:33:05   -92.259836
iter:   2 10:33:10   -90.125817   -0.72  -0.95
iter:   3 10:33:14   -88.788260   -1.25  -1.11
iter:   4 10:33:18   -88.089464   -1.45  -1.23
iter:   5 10:33:22   -87.760684   -1.67  -1.41
iter:   6 10:33:26   -87.752525   -2.53  -1.82
iter:   7 10:33:30   -87.749826c  -3.51  -1.88
iter:   8 10:33:35   -87.759893c  -2.61  -1.91
iter:   9 10:33:39   -87.755889c  -3.26  -2.25
iter:  10 10:33:43   -87.756774c  -3.96  -2.59
iter:  11 10:33:47   -87.755955c  -3.93  -2.65
iter:  12 10:33:51   -87.755723c  -4.48  -2.93
iter:  13 10:33:55   -87.755712c  -5.40  -3.15
iter:  14 10:34:00   -87.755518c  -5.50  -3.20
iter:  15 10:34:05   -87.755546c  -6.51  -3.40
iter:  16 10:34:09   -87.755655c  -6.01  -3.46
iter:  17 10:34:14   -87.755645c  -7.03  -3.66
iter:  18 10:34:18   -87.755605c  -6.29  -3.73
iter:  19 10:34:22   -87.755612c  -7.22  -4.25c
iter:  20 10:34:27   -87.755612c  -8.20c -4.34c

Converged after 20 iterations.

Dipole moment: (-0.000000, -0.000000, -0.180599) |e|*Ang

Energy contributions relative to reference atoms: (reference = -1616751.480151)

Kinetic:       +544.431133
Potential:     -460.194797
External:        +0.000000
XC:            -169.984016
Entropy (-ST):   -0.067574
Local:           -1.974145
SIC:             +0.000000
--------------------------
Free energy:    -87.789398
Extrapolated:   -87.755612

Showing only first 2 kpts
 Kpt  Band  Eigenvalues  Occupancy
  0    24      7.57509    1.99999
  0    25      8.69224    1.60555
  0    26     10.11019    0.00001
  0    27     10.23597    0.00000

  1    24      7.57509    1.99999
  1    25      8.69224    1.60555
  1    26     10.11019    0.00001
  1    27     10.23597    0.00000


Fermi level: 8.83261

No gap
No difference between direct/indirect transitions
Timing:                              incl.     excl.
-----------------------------------------------------------
Hamiltonian:                         2.184     0.001   0.0% |
 Atomic:                             0.148     0.000   0.0% |
  XC Correction:                     0.148     0.148   0.2% |
 Calculate atomic Hamiltonians:      0.006     0.006   0.0% |
 Communicate:                        0.000     0.000   0.0% |
 Initialize Hamiltonian:             0.000     0.000   0.0% |
 Poisson:                            0.001     0.001   0.0% |
 XC 3D grid:                         2.028     0.128   0.1% |
  VdW-DF integral:                   1.900     0.018   0.0% |
   Convolution:                      0.075     0.075   0.1% |
   FFT:                              0.020     0.020   0.0% |
   gather:                           0.000     0.000   0.0% |
   hmm1:                             0.001     0.001   0.0% |
   hmm2:                             0.059     0.059   0.1% |
   iFFT:                             0.041     0.041   0.0% |
   potential:                        0.083     0.001   0.0% |
    collect:                         0.000     0.000   0.0% |
    p1:                              0.010     0.010   0.0% |
    p2:                              0.073     0.073   0.1% |
    sum:                             0.000     0.000   0.0% |
   splines:                          1.603     1.603   1.8% ||
LCAO initialization:                 3.149     0.050   0.1% |
 LCAO eigensolver:                   1.466     0.001   0.0% |
  Calculate projections:             0.002     0.002   0.0% |
  DenseAtomicCorrection:             0.004     0.004   0.0% |
  Distribute overlap matrix:         0.000     0.000   0.0% |
  Orbital Layouts:                   0.771     0.771   0.9% |
  Potential matrix:                  0.148     0.148   0.2% |
  Sum over cells:                    0.541     0.541   0.6% |
 LCAO to grid:                       1.488     1.488   1.7% ||
 Set positions (LCAO WFS):           0.145     0.024   0.0% |
  Basic WFS set positions:           0.000     0.000   0.0% |
  Basis functions set positions:     0.000     0.000   0.0% |
  P tci:                             0.067     0.067   0.1% |
  ST tci:                            0.050     0.050   0.1% |
  mktci:                             0.004     0.004   0.0% |
PWDescriptor:                        0.011     0.011   0.0% |
SCF-cycle:                          84.367     0.223   0.2% |
 Davidson:                          67.064     7.182   8.0% |--|
  Apply H:                          13.056    12.899  14.3% |-----|
   HMM T:                            0.157     0.157   0.2% |
  Subspace diag:                    14.380     0.022   0.0% |
   calc_h_matrix:                   13.393     0.538   0.6% |
    Apply H:                        12.855    12.690  14.1% |-----|
     HMM T:                          0.165     0.165   0.2% |
   diagonalize:                      0.148     0.148   0.2% |
   rotate_psi:                       0.817     0.817   0.9% |
  calc. matrices:                   29.138     3.221   3.6% ||
   Apply H:                         25.917    25.607  28.5% |----------|
    HMM T:                           0.310     0.310   0.3% |
  diagonalize:                       1.758     1.758   2.0% ||
  rotate_psi:                        1.551     1.551   1.7% ||
 Density:                            5.915     0.000   0.0% |
  Atomic density matrices:           0.034     0.034   0.0% |
  Mix:                               1.324     1.324   1.5% ||
  Multipole moments:                 0.002     0.002   0.0% |
  Pseudo density:                    4.555     4.529   5.0% |-|
   Symmetrize density:               0.027     0.027   0.0% |
 Hamiltonian:                       11.060     0.013   0.0% |
  Atomic:                            2.879     0.009   0.0% |
   XC Correction:                    2.870     2.870   3.2% ||
  Calculate atomic Hamiltonians:     0.093     0.093   0.1% |
  Communicate:                       0.000     0.000   0.0% |
  Poisson:                           0.009     0.009   0.0% |
  XC 3D grid:                        8.067     1.993   2.2% ||
   VdW-DF integral:                  6.074     0.218   0.2% |
    Convolution:                     1.999     1.999   2.2% ||
    FFT:                             0.392     0.392   0.4% |
    gather:                          0.007     0.007   0.0% |
    hmm1:                            0.029     0.029   0.0% |
    hmm2:                            1.121     1.121   1.2% |
    iFFT:                            0.734     0.734   0.8% |
    potential:                       1.574     0.013   0.0% |
     collect:                        0.000     0.000   0.0% |
     p1:                             0.202     0.202   0.2% |
     p2:                             1.359     1.359   1.5% ||
     sum:                            0.000     0.000   0.0% |
    splines:                         0.000     0.000   0.0% |
 Orthonormalize:                     0.104     0.001   0.0% |
  calc_s_matrix:                     0.015     0.015   0.0% |
  inverse-cholesky:                  0.002     0.002   0.0% |
  projections:                       0.066     0.066   0.1% |
  rotate_psi_s:                      0.020     0.020   0.0% |
Set symmetry:                        0.002     0.002   0.0% |
Other:                               0.201     0.201   0.2% |
-----------------------------------------------------------
Total:                                        89.915 100.0%

Memory usage: 444.02 MiB
Date: Tue Apr  8 10:34:27 2025
