
  ___ ___ ___ _ _ _  
 |   |   |_  | | | | 
 | | | | | . | | | | 
 |__ |  _|___|_____|  25.1.0
 |___|_|             

User:   georgios-vourvachakis@georgios-vourvachakis-82K2
Date:   Tue Apr  8 11:01:34 2025
Arch:   x86_64
Pid:    24499
CWD:    /home/georgios-vourvachakis/Desktop/DFT_codes
Python: 3.12.3
gpaw:   /home/georgios-vourvachakis/Desktop/DFT_codes/.venv/lib/python3.12/site-packages/gpaw
_gpaw:  /home/georgios-vourvachakis/Desktop/DFT_codes/.venv/lib/python3.12/site-packages/
        _gpaw.cpython-312-x86_64-linux-gnu.so
ase:    /home/georgios-vourvachakis/Desktop/DFT_codes/.venv/lib/python3.12/site-packages/ase (version 3.24.0)
numpy:  /home/georgios-vourvachakis/Desktop/DFT_codes/.venv/lib/python3.12/site-packages/numpy (version 2.2.3)
scipy:  /home/georgios-vourvachakis/Desktop/DFT_codes/.venv/lib/python3.12/site-packages/scipy (version 1.15.1)
libxc:  5.2.3
units:  Angstrom and eV
cores: 1
OpenMP: False
OMP_NUM_THREADS: 1

Input parameters:
  kpts: [6 6 2]
  mode: {ecut: 480.0,
         name: pw}
  xc: optPBE-vdW

System changes: positions, numbers, cell, pbc, initial_charges, initial_magmoms 

Initialize ...

species:
  W:
    name: Tungsten
    id: c5cdf39eb2772a6eef4e39aea6cd5c6f
    Z: 74.0
    valence: 14
    core: 60
    charge: 0.0
    file: /home/georgios-vourvachakis/Desktop/DFT_codes/gpaw_datasets/gpaw-setups-0.9.20000/W.revPBE.gz
    compensation charges: {type: gauss,
                           rc: 0.40,
                           lmax: 2}
    cutoffs: {filter: 2.36,
              core: 3.02}
    projectors:
      #              energy  rcut
      - 5s(2.00)   -78.785   1.344
      - 6s(2.00)    -5.639   1.344
      - 5p(6.00)   -43.193   1.355
      - 6p(0.00)    -1.336   1.355
      - 5d(4.00)    -4.444   1.228
      -  d          22.768   1.228
  
    # Using partial waves for W as LCAO basis

  Te:
    name: Tellurium
    id: cecded85d882fd4df90837008c85fd5a
    Z: 52.0
    valence: 6
    core: 46
    charge: 0.0
    file: /home/georgios-vourvachakis/Desktop/DFT_codes/gpaw_datasets/gpaw-setups-0.9.20000/Te.revPBE.gz
    compensation charges: {type: gauss,
                           rc: 0.36,
                           lmax: 2}
    cutoffs: {filter: 2.09,
              core: 3.17}
    projectors:
      #              energy  rcut
      - 5s(2.00)   -15.027   1.180
      - 5p(4.00)    -5.913   1.196
      -  s          12.185   1.180
      -  p          21.299   1.196
      -  d           0.000   1.238
  
    # Using partial waves for Te as LCAO basis

Reference energy: -1616751.480151  # eV

Spin-paired calculation

Convergence criteria:
 Maximum [total energy] change in last 3 cyles: 0.0005 eV / valence electron
 Maximum integral of absolute [dens]ity change: 0.0001 electrons / valence electron
 Maximum integral of absolute [eigenst]ate change: 4e-08 eV^2 / valence electron
 Maximum number of scf [iter]ations: 333
 (Square brackets indicate name in SCF output, whereas a 'c' in
 the SCF output indicates the quantity has converged.)

Symmetries present (total): 6

  ( 1  1  0)  ( 1  0  0)  ( 0  1  0)  ( 0 -1  0)  (-1  0  0)  (-1 -1  0)
  ( 0 -1  0)  ( 0  1  0)  (-1 -1  0)  (-1  0  0)  ( 1  1  0)  ( 1  0  0)
  ( 0  0  1)  ( 0  0  1)  ( 0  0  1)  ( 0  0  1)  ( 0  0  1)  ( 0  0  1)
Note: your k-points are not as symmetric as your crystal!

72 k-points: 6 x 6 x 2 Monkhorst-Pack grid
21 k-points in the irreducible part of the Brillouin zone
       k-points in crystal coordinates                weights
   0:     0.08333333   -0.08333333   -0.25000000          2/72
   1:     0.08333333   -0.08333333    0.25000000          2/72
   2:     0.08333333    0.08333333    0.25000000          4/72
   3:     0.25000000   -0.25000000   -0.25000000          2/72
   4:     0.25000000   -0.25000000    0.25000000          2/72
   5:     0.25000000   -0.08333333   -0.25000000          4/72
   6:     0.25000000   -0.08333333    0.25000000          4/72
   7:     0.25000000    0.08333333   -0.25000000          4/72
   8:     0.25000000    0.08333333    0.25000000          4/72
   9:     0.25000000    0.25000000    0.25000000          4/72
          ...
  20:     0.41666667    0.41666667    0.25000000          4/72

Wave functions: Plane wave expansion
  Cutoff energy: 480.000 eV
  Number of coefficients (min, max): 3710, 3760
  Pulay-stress correction: 0.000000 eV/Ang^3 (de/decut=0.000000)
  Using Numpy's FFT
  ScaLapack parameters: grid=1x1, blocksize=None
  Wavefunction extrapolation:
    Improved wavefunction reuse through dual PAW basis 

Occupation numbers: Fermi-Dirac:
  width: 0.1000  # eV
 

Eigensolver
   Davidson(niter=2) 

Densities:
  Coarse grid: 20*20*72 grid
  Fine grid: 40*40*144 grid
  Total Charge: 0.000000 

Density mixing:
  Method: separate
  Backend: pulay
  Linear mixing parameter: 0.05
  old densities: 5
  Damping of long wavelength oscillations: 50 

Hamiltonian:
  XC and Coulomb potentials evaluated on a 40*40*144 grid
  Using the optPBE-vdW Exchange-Correlation functional
  External potential:
    NoExternalPotential
 

XC parameters: optPBE-vdW with 2 nearest neighbor stencil

Memory estimate:
  Process memory now: 485.64 MiB
  Calculator: 77.94 MiB
    Density: 12.86 MiB
      Arrays: 5.71 MiB
      Localized functions: 4.95 MiB
      Mixer: 2.20 MiB
    Hamiltonian: 3.85 MiB
      Arrays: 3.74 MiB
      XC: 0.00 MiB
      Poisson: 0.00 MiB
      vbar: 0.12 MiB
    Wavefunctions: 61.23 MiB
      Arrays psit_nG: 43.37 MiB
      Eigensolver: 2.55 MiB
      Projections: 1.02 MiB
      Projectors: 11.98 MiB
      PW-descriptor: 2.30 MiB

Total number of cores used: 1

Number of atoms: 6
Number of atomic orbitals: 42
Number of bands in calculation: 36
Number of valence electrons: 52
Bands to converge: occupied

... initialized

Initializing position-dependent things.

Density initialized from atomic densities
Creating initial wave functions:
  36 bands from LCAO basis set

                  
                  
                  
                  
                  
       Te         
                  
                  
                  
                  
                  
                  
         Te       
                  
                  
                  
       W          
                  
                  
                  
                  
                  
                  
         W        
                  
         Te       
                  
                  
                  
                  
                  
                  
                  
                  
                  
       Te         
                  
                  
                  
                  

Positions:
   0 W      1.785500    1.030859    3.542500    ( 0.0000,  0.0000,  0.0000)
   1 W      1.785500   -1.030859   10.627500    ( 0.0000,  0.0000,  0.0000)
   2 Te     1.785500    1.030859   12.327900    ( 0.0000,  0.0000,  0.0000)
   3 Te     1.785500   -1.030859   -5.242900    ( 0.0000,  0.0000,  0.0000)
   4 Te     1.785500    1.030859    1.842100    ( 0.0000,  0.0000,  0.0000)
   5 Te     1.785500   -1.030859   19.412900    ( 0.0000,  0.0000,  0.0000)

Unit cell:
           periodic     x           y           z      points  spacing
  1. axis:    yes    1.785500   -3.092577    0.000000    20     0.1546
  2. axis:    yes    1.785500    3.092577    0.000000    20     0.1546
  3. axis:    yes    0.000000    0.000000   14.170000    72     0.1968

  Lengths:   3.571000   3.571000  14.170000
  Angles:   90.000000  90.000000 120.000000

Effective grid spacing dv^(1/3) = 0.1758

     iter     time        total  log10-change:
                         energy   eigst   dens
iter:   1 11:01:53   -93.280304
iter:   2 11:02:08   -91.213297   -0.72  -0.96
iter:   3 11:02:24   -89.940053   -1.27  -1.11
iter:   4 11:02:35   -89.220909   -1.48  -1.23
iter:   5 11:02:46   -88.907608   -1.66  -1.41
iter:   6 11:03:03   -88.899544   -2.46  -1.81
iter:   7 11:03:15   -88.894417c  -3.28  -1.88
iter:   8 11:03:29   -88.905726c  -2.67  -1.94
iter:   9 11:03:36   -88.901851c  -3.23  -2.27
iter:  10 11:03:42   -88.903395c  -3.80  -2.57
iter:  11 11:03:47   -88.901828c  -4.21  -2.60
iter:  12 11:03:52   -88.901735c  -4.94  -2.85
iter:  13 11:03:56   -88.901368c  -4.43  -2.93
iter:  14 11:04:02   -88.901413c  -5.45  -3.25
iter:  15 11:04:06   -88.901369c  -5.14  -3.27
iter:  16 11:04:11   -88.901356c  -5.83  -3.54
iter:  17 11:04:16   -88.901365c  -6.57  -3.93
iter:  18 11:04:21   -88.901379c  -7.21  -4.00
iter:  19 11:04:26   -88.901391c  -7.08  -4.12c
iter:  20 11:04:31   -88.901385c  -7.69c -4.26c

Converged after 20 iterations.

Dipole moment: (-0.000000, -0.000000, -0.194939) |e|*Ang

Energy contributions relative to reference atoms: (reference = -1616751.480151)

Kinetic:       +527.627988
Potential:     -446.765635
External:        +0.000000
XC:            -167.780239
Entropy (-ST):   -0.070133
Local:           -1.948433
SIC:             +0.000000
--------------------------
Free energy:    -88.936452
Extrapolated:   -88.901385

Showing only first 2 kpts
 Kpt  Band  Eigenvalues  Occupancy
  0    24      7.24987    1.99999
  0    25      8.35723    1.41197
  0    26      9.58799    0.00002
  0    27      9.71064    0.00001

  1    24      7.24987    1.99999
  1    25      8.35723    1.41197
  1    26      9.58799    0.00002
  1    27      9.71064    0.00001


Fermi level: 8.44483

No gap
No difference between direct/indirect transitions
Timing:                              incl.     excl.
-----------------------------------------------------------
Hamiltonian:                         2.564     0.001   0.0% |
 Atomic:                             0.158     0.000   0.0% |
  XC Correction:                     0.158     0.158   0.1% |
 Calculate atomic Hamiltonians:      0.005     0.005   0.0% |
 Communicate:                        0.000     0.000   0.0% |
 Initialize Hamiltonian:             0.001     0.001   0.0% |
 Poisson:                            0.001     0.001   0.0% |
 XC 3D grid:                         2.398     0.153   0.1% |
  VdW-DF integral:                   2.245     0.164   0.1% |
   Convolution:                      0.105     0.105   0.1% |
   FFT:                              0.042     0.042   0.0% |
   gather:                           0.000     0.000   0.0% |
   hmm1:                             0.002     0.002   0.0% |
   hmm2:                             0.133     0.133   0.1% |
   iFFT:                             0.057     0.057   0.0% |
   potential:                        0.127     0.001   0.0% |
    collect:                         0.000     0.000   0.0% |
    p1:                              0.014     0.014   0.0% |
    p2:                              0.113     0.113   0.1% |
    sum:                             0.000     0.000   0.0% |
   splines:                          1.614     1.614   0.9% |
LCAO initialization:                 4.002     0.051   0.0% |
 LCAO eigensolver:                   1.722     0.001   0.0% |
  Calculate projections:             0.002     0.002   0.0% |
  DenseAtomicCorrection:             0.005     0.005   0.0% |
  Distribute overlap matrix:         0.001     0.001   0.0% |
  Orbital Layouts:                   0.893     0.893   0.5% |
  Potential matrix:                  0.180     0.180   0.1% |
  Sum over cells:                    0.641     0.641   0.4% |
 LCAO to grid:                       2.071     2.071   1.2% |
 Set positions (LCAO WFS):           0.157     0.027   0.0% |
  Basic WFS set positions:           0.000     0.000   0.0% |
  Basis functions set positions:     0.000     0.000   0.0% |
  P tci:                             0.071     0.071   0.0% |
  ST tci:                            0.054     0.054   0.0% |
  mktci:                             0.004     0.004   0.0% |
PWDescriptor:                        0.014     0.014   0.0% |
SCF-cycle:                         169.682     0.237   0.1% |
 Davidson:                         146.138     7.995   4.5% |-|
  Apply H:                          14.991    14.776   8.4% |--|
   HMM T:                            0.215     0.215   0.1% |
  Subspace diag:                    16.613     0.035   0.0% |
   calc_h_matrix:                   15.483     0.620   0.4% |
    Apply H:                        14.863    14.657   8.3% |--|
     HMM T:                          0.205     0.205   0.1% |
   diagonalize:                      0.175     0.175   0.1% |
   rotate_psi:                       0.921     0.921   0.5% |
  calc. matrices:                   31.589     3.348   1.9% ||
   Apply H:                         28.240    27.857  15.8% |-----|
    HMM T:                           0.384     0.384   0.2% |
  diagonalize:                      72.993    72.993  41.4% |----------------|
  rotate_psi:                        1.957     1.957   1.1% |
 Density:                            8.066     0.000   0.0% |
  Atomic density matrices:           0.037     0.037   0.0% |
  Mix:                               2.692     2.692   1.5% ||
  Multipole moments:                 0.002     0.002   0.0% |
  Pseudo density:                    5.336     5.302   3.0% ||
   Symmetrize density:               0.033     0.033   0.0% |
 Hamiltonian:                       15.108     0.016   0.0% |
  Atomic:                            2.913     0.010   0.0% |
   XC Correction:                    2.903     2.903   1.6% ||
  Calculate atomic Hamiltonians:     0.102     0.102   0.1% |
  Communicate:                       0.000     0.000   0.0% |
  Poisson:                           0.010     0.010   0.0% |
  XC 3D grid:                       12.067     2.504   1.4% ||
   VdW-DF integral:                  9.562     1.557   0.9% |
    Convolution:                     2.343     2.343   1.3% ||
    FFT:                             0.602     0.602   0.3% |
    gather:                          0.009     0.009   0.0% |
    hmm1:                            0.027     0.027   0.0% |
    hmm2:                            1.775     1.775   1.0% |
    iFFT:                            0.953     0.953   0.5% |
    potential:                       2.296     0.018   0.0% |
     collect:                        0.000     0.000   0.0% |
     p1:                             0.254     0.254   0.1% |
     p2:                             2.024     2.024   1.1% |
     sum:                            0.000     0.000   0.0% |
    splines:                         0.000     0.000   0.0% |
 Orthonormalize:                     0.133     0.002   0.0% |
  calc_s_matrix:                     0.017     0.017   0.0% |
  inverse-cholesky:                  0.003     0.003   0.0% |
  projections:                       0.085     0.085   0.0% |
  rotate_psi_s:                      0.027     0.027   0.0% |
Set symmetry:                        0.002     0.002   0.0% |
Other:                               0.246     0.246   0.1% |
-----------------------------------------------------------
Total:                                       176.511 100.0%

Memory usage: 490.82 MiB
Date: Tue Apr  8 11:04:31 2025
