
  ___ ___ ___ _ _ _  
 |   |   |_  | | | | 
 | | | | | . | | | | 
 |__ |  _|___|_____|  25.1.0
 |___|_|             

User:   georgios-vourvachakis@georgios-vourvachakis-82K2
Date:   Tue Apr  8 10:31:33 2025
Arch:   x86_64
Pid:    24499
CWD:    /home/georgios-vourvachakis/Desktop/DFT_codes
Python: 3.12.3
gpaw:   /home/georgios-vourvachakis/Desktop/DFT_codes/.venv/lib/python3.12/site-packages/gpaw
_gpaw:  /home/georgios-vourvachakis/Desktop/DFT_codes/.venv/lib/python3.12/site-packages/
        _gpaw.cpython-312-x86_64-linux-gnu.so
ase:    /home/georgios-vourvachakis/Desktop/DFT_codes/.venv/lib/python3.12/site-packages/ase (version 3.24.0)
numpy:  /home/georgios-vourvachakis/Desktop/DFT_codes/.venv/lib/python3.12/site-packages/numpy (version 2.2.3)
scipy:  /home/georgios-vourvachakis/Desktop/DFT_codes/.venv/lib/python3.12/site-packages/scipy (version 1.15.1)
libxc:  5.2.3
units:  Angstrom and eV
cores: 1
OpenMP: False
OMP_NUM_THREADS: 1

Input parameters:
  kpts: [6 6 2]
  mode: {ecut: 480.0,
         name: pw}
  xc: optPBE-vdW

System changes: positions, numbers, cell, pbc, initial_charges, initial_magmoms 

Initialize ...

species:
  W:
    name: Tungsten
    id: c5cdf39eb2772a6eef4e39aea6cd5c6f
    Z: 74.0
    valence: 14
    core: 60
    charge: 0.0
    file: /home/georgios-vourvachakis/Desktop/DFT_codes/gpaw_datasets/gpaw-setups-0.9.20000/W.revPBE.gz
    compensation charges: {type: gauss,
                           rc: 0.40,
                           lmax: 2}
    cutoffs: {filter: 2.36,
              core: 3.02}
    projectors:
      #              energy  rcut
      - 5s(2.00)   -78.785   1.344
      - 6s(2.00)    -5.639   1.344
      - 5p(6.00)   -43.193   1.355
      - 6p(0.00)    -1.336   1.355
      - 5d(4.00)    -4.444   1.228
      -  d          22.768   1.228
  
    # Using partial waves for W as LCAO basis

  Te:
    name: Tellurium
    id: cecded85d882fd4df90837008c85fd5a
    Z: 52.0
    valence: 6
    core: 46
    charge: 0.0
    file: /home/georgios-vourvachakis/Desktop/DFT_codes/gpaw_datasets/gpaw-setups-0.9.20000/Te.revPBE.gz
    compensation charges: {type: gauss,
                           rc: 0.36,
                           lmax: 2}
    cutoffs: {filter: 2.09,
              core: 3.17}
    projectors:
      #              energy  rcut
      - 5s(2.00)   -15.027   1.180
      - 5p(4.00)    -5.913   1.196
      -  s          12.185   1.180
      -  p          21.299   1.196
      -  d           0.000   1.238
  
    # Using partial waves for Te as LCAO basis

Reference energy: -1616751.480151  # eV

Spin-paired calculation

Convergence criteria:
 Maximum [total energy] change in last 3 cyles: 0.0005 eV / valence electron
 Maximum integral of absolute [dens]ity change: 0.0001 electrons / valence electron
 Maximum integral of absolute [eigenst]ate change: 4e-08 eV^2 / valence electron
 Maximum number of scf [iter]ations: 333
 (Square brackets indicate name in SCF output, whereas a 'c' in
 the SCF output indicates the quantity has converged.)

Symmetries present (total): 6

  ( 1  1  0)  ( 1  0  0)  ( 0  1  0)  ( 0 -1  0)  (-1  0  0)  (-1 -1  0)
  ( 0 -1  0)  ( 0  1  0)  (-1 -1  0)  (-1  0  0)  ( 1  1  0)  ( 1  0  0)
  ( 0  0  1)  ( 0  0  1)  ( 0  0  1)  ( 0  0  1)  ( 0  0  1)  ( 0  0  1)
Note: your k-points are not as symmetric as your crystal!

72 k-points: 6 x 6 x 2 Monkhorst-Pack grid
21 k-points in the irreducible part of the Brillouin zone
       k-points in crystal coordinates                weights
   0:     0.08333333   -0.08333333   -0.25000000          2/72
   1:     0.08333333   -0.08333333    0.25000000          2/72
   2:     0.08333333    0.08333333    0.25000000          4/72
   3:     0.25000000   -0.25000000   -0.25000000          2/72
   4:     0.25000000   -0.25000000    0.25000000          2/72
   5:     0.25000000   -0.08333333   -0.25000000          4/72
   6:     0.25000000   -0.08333333    0.25000000          4/72
   7:     0.25000000    0.08333333   -0.25000000          4/72
   8:     0.25000000    0.08333333    0.25000000          4/72
   9:     0.25000000    0.25000000    0.25000000          4/72
          ...
  20:     0.41666667    0.41666667    0.25000000          4/72

Wave functions: Plane wave expansion
  Cutoff energy: 480.000 eV
  Number of coefficients (min, max): 3594, 3624
  Pulay-stress correction: 0.000000 eV/Ang^3 (de/decut=0.000000)
  Using Numpy's FFT
  ScaLapack parameters: grid=1x1, blocksize=None
  Wavefunction extrapolation:
    Improved wavefunction reuse through dual PAW basis 

Occupation numbers: Fermi-Dirac:
  width: 0.1000  # eV
 

Eigensolver
   Davidson(niter=2) 

Densities:
  Coarse grid: 18*18*72 grid
  Fine grid: 36*36*144 grid
  Total Charge: 0.000000 

Density mixing:
  Method: separate
  Backend: pulay
  Linear mixing parameter: 0.05
  old densities: 5
  Damping of long wavelength oscillations: 50 

Hamiltonian:
  XC and Coulomb potentials evaluated on a 36*36*144 grid
  Using the optPBE-vdW Exchange-Correlation functional
  External potential:
    NoExternalPotential
 

XC parameters: optPBE-vdW with 2 nearest neighbor stencil

Memory estimate:
  Process memory now: 434.89 MiB
  Calculator: 73.26 MiB
    Density: 11.20 MiB
      Arrays: 4.63 MiB
      Localized functions: 4.79 MiB
      Mixer: 1.78 MiB
    Hamiltonian: 3.14 MiB
      Arrays: 3.03 MiB
      XC: 0.00 MiB
      Poisson: 0.00 MiB
      vbar: 0.12 MiB
    Wavefunctions: 58.92 MiB
      Arrays psit_nG: 41.81 MiB
      Eigensolver: 2.47 MiB
      Projections: 1.02 MiB
      Projectors: 11.58 MiB
      PW-descriptor: 2.05 MiB

Total number of cores used: 1

Number of atoms: 6
Number of atomic orbitals: 42
Number of bands in calculation: 36
Number of valence electrons: 52
Bands to converge: occupied

... initialized

Initializing position-dependent things.

Density initialized from atomic densities
Creating initial wave functions:
  36 bands from LCAO basis set

                  
                  
                  
                  
                  
       Te         
                  
                  
                  
                  
                  
                  
         Te       
                  
                  
                  
       W          
                  
                  
                  
                  
                  
                  
         W        
                  
         Te       
                  
                  
                  
                  
                  
                  
                  
                  
                  
       Te         
                  
                  
                  
                  

Positions:
   0 W      1.760500    1.016425    3.523750    ( 0.0000,  0.0000,  0.0000)
   1 W      1.760500   -1.016425   10.571250    ( 0.0000,  0.0000,  0.0000)
   2 Te     1.760500    1.016425   12.262650    ( 0.0000,  0.0000,  0.0000)
   3 Te     1.760500   -1.016425   -5.215150    ( 0.0000,  0.0000,  0.0000)
   4 Te     1.760500    1.016425    1.832350    ( 0.0000,  0.0000,  0.0000)
   5 Te     1.760500   -1.016425   19.310150    ( 0.0000,  0.0000,  0.0000)

Unit cell:
           periodic     x           y           z      points  spacing
  1. axis:    yes    1.760500   -3.049275    0.000000    18     0.1694
  2. axis:    yes    1.760500    3.049275    0.000000    18     0.1694
  3. axis:    yes    0.000000    0.000000   14.095000    72     0.1958

  Lengths:   3.521000   3.521000  14.095000
  Angles:   90.000000  90.000000 120.000000

Effective grid spacing dv^(1/3) = 0.1865

     iter     time        total  log10-change:
                         energy   eigst   dens
iter:   1 10:31:42   -91.826625
iter:   2 10:31:46   -89.656129   -0.72  -0.95
iter:   3 10:31:50   -88.300672   -1.25  -1.11
iter:   4 10:31:54   -87.599332   -1.45  -1.24
iter:   5 10:31:59   -87.269670   -1.66  -1.41
iter:   6 10:32:03   -87.261370   -2.52  -1.82
iter:   7 10:32:07   -87.258269c  -3.49  -1.88
iter:   8 10:32:11   -87.268547c  -2.62  -1.92
iter:   9 10:32:15   -87.264751c  -3.26  -2.26
iter:  10 10:32:19   -87.265787c  -3.91  -2.58
iter:  11 10:32:23   -87.264749c  -3.84  -2.64
iter:  12 10:32:27   -87.264604c  -4.70  -2.98
iter:  13 10:32:32   -87.264595c  -5.65  -3.17
iter:  14 10:32:36   -87.264397c  -5.37  -3.21
iter:  15 10:32:40   -87.264419c  -6.45  -3.53
iter:  16 10:32:44   -87.264534c  -5.76  -3.63
iter:  17 10:32:48   -87.264504c  -6.65  -3.91
iter:  18 10:32:52   -87.264491c  -7.16  -4.05c
iter:  19 10:32:57   -87.264490c  -7.67c -4.11c

Converged after 19 iterations.

Dipole moment: (0.000000, -0.000000, -0.183492) |e|*Ang

Energy contributions relative to reference atoms: (reference = -1616751.480151)

Kinetic:       +548.938207
Potential:     -463.824621
External:        +0.000000
XC:            -170.350084
Entropy (-ST):   -0.069134
Local:           -1.993425
SIC:             +0.000000
--------------------------
Free energy:    -87.299057
Extrapolated:   -87.264490

Showing only first 2 kpts
 Kpt  Band  Eigenvalues  Occupancy
  0    24      7.61040    1.99999
  0    25      8.73409    1.56662
  0    26     10.13251    0.00001
  0    27     10.26019    0.00000

  1    24      7.61040    1.99999
  1    25      8.73409    1.56662
  1    26     10.13251    0.00001
  1    27     10.26019    0.00000


Fermi level: 8.86259

No gap
No difference between direct/indirect transitions
Timing:                              incl.     excl.
-----------------------------------------------------------
Hamiltonian:                         2.142     0.001   0.0% |
 Atomic:                             0.150     0.000   0.0% |
  XC Correction:                     0.149     0.149   0.2% |
 Calculate atomic Hamiltonians:      0.005     0.005   0.0% |
 Communicate:                        0.000     0.000   0.0% |
 Initialize Hamiltonian:             0.000     0.000   0.0% |
 Poisson:                            0.000     0.000   0.0% |
 XC 3D grid:                         1.986     0.134   0.2% |
  VdW-DF integral:                   1.852     0.019   0.0% |
   Convolution:                      0.075     0.075   0.1% |
   FFT:                              0.022     0.022   0.0% |
   gather:                           0.000     0.000   0.0% |
   hmm1:                             0.001     0.001   0.0% |
   hmm2:                             0.062     0.062   0.1% |
   iFFT:                             0.040     0.040   0.0% |
   potential:                        0.084     0.001   0.0% |
    collect:                         0.000     0.000   0.0% |
    p1:                              0.010     0.010   0.0% |
    p2:                              0.073     0.073   0.1% |
    sum:                             0.000     0.000   0.0% |
   splines:                          1.549     1.549   1.9% ||
LCAO initialization:                 2.979     0.050   0.1% |
 LCAO eigensolver:                   1.271     0.001   0.0% |
  Calculate projections:             0.001     0.001   0.0% |
  DenseAtomicCorrection:             0.004     0.004   0.0% |
  Distribute overlap matrix:         0.000     0.000   0.0% |
  Orbital Layouts:                   0.599     0.599   0.7% |
  Potential matrix:                  0.148     0.148   0.2% |
  Sum over cells:                    0.518     0.518   0.6% |
 LCAO to grid:                       1.514     1.514   1.8% ||
 Set positions (LCAO WFS):           0.144     0.024   0.0% |
  Basic WFS set positions:           0.000     0.000   0.0% |
  Basis functions set positions:     0.000     0.000   0.0% |
  P tci:                             0.066     0.066   0.1% |
  ST tci:                            0.050     0.050   0.1% |
  mktci:                             0.004     0.004   0.0% |
PWDescriptor:                        0.011     0.011   0.0% |
SCF-cycle:                          77.784     0.210   0.3% |
 Davidson:                          61.664     6.584   7.9% |--|
  Apply H:                          12.052    11.907  14.3% |-----|
   HMM T:                            0.145     0.145   0.2% |
  Subspace diag:                    13.277     0.020   0.0% |
   calc_h_matrix:                   12.377     0.505   0.6% |
    Apply H:                        11.872    11.718  14.1% |-----|
     HMM T:                          0.155     0.155   0.2% |
   diagonalize:                      0.137     0.137   0.2% |
   rotate_psi:                       0.744     0.744   0.9% |
  calc. matrices:                   26.964     3.003   3.6% ||
   Apply H:                         23.962    23.679  28.5% |----------|
    HMM T:                           0.283     0.283   0.3% |
  diagonalize:                       1.340     1.340   1.6% ||
  rotate_psi:                        1.448     1.448   1.7% ||
 Density:                            5.530     0.000   0.0% |
  Atomic density matrices:           0.032     0.032   0.0% |
  Mix:                               1.196     1.196   1.4% ||
  Multipole moments:                 0.001     0.001   0.0% |
  Pseudo density:                    4.300     4.275   5.1% |-|
   Symmetrize density:               0.025     0.025   0.0% |
 Hamiltonian:                       10.275     0.012   0.0% |
  Atomic:                            2.699     0.008   0.0% |
   XC Correction:                    2.691     2.691   3.2% ||
  Calculate atomic Hamiltonians:     0.093     0.093   0.1% |
  Communicate:                       0.000     0.000   0.0% |
  Poisson:                           0.008     0.008   0.0% |
  XC 3D grid:                        7.463     1.900   2.3% ||
   VdW-DF integral:                  5.562     0.282   0.3% |
    Convolution:                     1.610     1.610   1.9% ||
    FFT:                             0.371     0.371   0.4% |
    gather:                          0.006     0.006   0.0% |
    hmm1:                            0.028     0.028   0.0% |
    hmm2:                            1.081     1.081   1.3% ||
    iFFT:                            0.715     0.715   0.9% |
    potential:                       1.469     0.013   0.0% |
     collect:                        0.000     0.000   0.0% |
     p1:                             0.185     0.185   0.2% |
     p2:                             1.271     1.271   1.5% ||
     sum:                            0.000     0.000   0.0% |
    splines:                         0.000     0.000   0.0% |
 Orthonormalize:                     0.105     0.001   0.0% |
  calc_s_matrix:                     0.015     0.015   0.0% |
  inverse-cholesky:                  0.002     0.002   0.0% |
  projections:                       0.066     0.066   0.1% |
  rotate_psi_s:                      0.021     0.021   0.0% |
Set symmetry:                        0.002     0.002   0.0% |
Other:                               0.198     0.198   0.2% |
-----------------------------------------------------------
Total:                                        83.116 100.0%

Memory usage: 434.89 MiB
Date: Tue Apr  8 10:32:57 2025
