
  ___ ___ ___ _ _ _  
 |   |   |_  | | | | 
 | | | | | . | | | | 
 |__ |  _|___|_____|  25.1.0
 |___|_|             

User:   georgios-vourvachakis@georgios-vourvachakis-82K2
Date:   Tue Apr  8 11:06:16 2025
Arch:   x86_64
Pid:    24499
CWD:    /home/georgios-vourvachakis/Desktop/DFT_codes
Python: 3.12.3
gpaw:   /home/georgios-vourvachakis/Desktop/DFT_codes/.venv/lib/python3.12/site-packages/gpaw
_gpaw:  /home/georgios-vourvachakis/Desktop/DFT_codes/.venv/lib/python3.12/site-packages/
        _gpaw.cpython-312-x86_64-linux-gnu.so
ase:    /home/georgios-vourvachakis/Desktop/DFT_codes/.venv/lib/python3.12/site-packages/ase (version 3.24.0)
numpy:  /home/georgios-vourvachakis/Desktop/DFT_codes/.venv/lib/python3.12/site-packages/numpy (version 2.2.3)
scipy:  /home/georgios-vourvachakis/Desktop/DFT_codes/.venv/lib/python3.12/site-packages/scipy (version 1.15.1)
libxc:  5.2.3
units:  Angstrom and eV
cores: 1
OpenMP: False
OMP_NUM_THREADS: 1

Input parameters:
  kpts: [6 6 2]
  mode: {ecut: 480.0,
         name: pw}
  xc: optPBE-vdW

System changes: positions, numbers, cell, pbc, initial_charges, initial_magmoms 

Initialize ...

species:
  W:
    name: Tungsten
    id: c5cdf39eb2772a6eef4e39aea6cd5c6f
    Z: 74.0
    valence: 14
    core: 60
    charge: 0.0
    file: /home/georgios-vourvachakis/Desktop/DFT_codes/gpaw_datasets/gpaw-setups-0.9.20000/W.revPBE.gz
    compensation charges: {type: gauss,
                           rc: 0.40,
                           lmax: 2}
    cutoffs: {filter: 2.36,
              core: 3.02}
    projectors:
      #              energy  rcut
      - 5s(2.00)   -78.785   1.344
      - 6s(2.00)    -5.639   1.344
      - 5p(6.00)   -43.193   1.355
      - 6p(0.00)    -1.336   1.355
      - 5d(4.00)    -4.444   1.228
      -  d          22.768   1.228
  
    # Using partial waves for W as LCAO basis

  Te:
    name: Tellurium
    id: cecded85d882fd4df90837008c85fd5a
    Z: 52.0
    valence: 6
    core: 46
    charge: 0.0
    file: /home/georgios-vourvachakis/Desktop/DFT_codes/gpaw_datasets/gpaw-setups-0.9.20000/Te.revPBE.gz
    compensation charges: {type: gauss,
                           rc: 0.36,
                           lmax: 2}
    cutoffs: {filter: 2.09,
              core: 3.17}
    projectors:
      #              energy  rcut
      - 5s(2.00)   -15.027   1.180
      - 5p(4.00)    -5.913   1.196
      -  s          12.185   1.180
      -  p          21.299   1.196
      -  d           0.000   1.238
  
    # Using partial waves for Te as LCAO basis

Reference energy: -1616751.480151  # eV

Spin-paired calculation

Convergence criteria:
 Maximum [total energy] change in last 3 cyles: 0.0005 eV / valence electron
 Maximum integral of absolute [dens]ity change: 0.0001 electrons / valence electron
 Maximum integral of absolute [eigenst]ate change: 4e-08 eV^2 / valence electron
 Maximum number of scf [iter]ations: 333
 (Square brackets indicate name in SCF output, whereas a 'c' in
 the SCF output indicates the quantity has converged.)

Symmetries present (total): 6

  ( 1  1  0)  ( 1  0  0)  ( 0  1  0)  ( 0 -1  0)  (-1  0  0)  (-1 -1  0)
  ( 0 -1  0)  ( 0  1  0)  (-1 -1  0)  (-1  0  0)  ( 1  1  0)  ( 1  0  0)
  ( 0  0  1)  ( 0  0  1)  ( 0  0  1)  ( 0  0  1)  ( 0  0  1)  ( 0  0  1)
Note: your k-points are not as symmetric as your crystal!

72 k-points: 6 x 6 x 2 Monkhorst-Pack grid
21 k-points in the irreducible part of the Brillouin zone
       k-points in crystal coordinates                weights
   0:     0.08333333   -0.08333333   -0.25000000          2/72
   1:     0.08333333   -0.08333333    0.25000000          2/72
   2:     0.08333333    0.08333333    0.25000000          4/72
   3:     0.25000000   -0.25000000   -0.25000000          2/72
   4:     0.25000000   -0.25000000    0.25000000          2/72
   5:     0.25000000   -0.08333333   -0.25000000          4/72
   6:     0.25000000   -0.08333333    0.25000000          4/72
   7:     0.25000000    0.08333333   -0.25000000          4/72
   8:     0.25000000    0.08333333    0.25000000          4/72
   9:     0.25000000    0.25000000    0.25000000          4/72
          ...
  20:     0.41666667    0.41666667    0.25000000          4/72

Wave functions: Plane wave expansion
  Cutoff energy: 480.000 eV
  Number of coefficients (min, max): 3744, 3802
  Pulay-stress correction: 0.000000 eV/Ang^3 (de/decut=0.000000)
  Using Numpy's FFT
  ScaLapack parameters: grid=1x1, blocksize=None
  Wavefunction extrapolation:
    Improved wavefunction reuse through dual PAW basis 

Occupation numbers: Fermi-Dirac:
  width: 0.1000  # eV
 

Eigensolver
   Davidson(niter=2) 

Densities:
  Coarse grid: 20*20*72 grid
  Fine grid: 40*40*144 grid
  Total Charge: 0.000000 

Density mixing:
  Method: separate
  Backend: pulay
  Linear mixing parameter: 0.05
  old densities: 5
  Damping of long wavelength oscillations: 50 

Hamiltonian:
  XC and Coulomb potentials evaluated on a 40*40*144 grid
  Using the optPBE-vdW Exchange-Correlation functional
  External potential:
    NoExternalPotential
 

XC parameters: optPBE-vdW with 2 nearest neighbor stencil

Memory estimate:
  Process memory now: 498.20 MiB
  Calculator: 78.63 MiB
    Density: 12.91 MiB
      Arrays: 5.71 MiB
      Localized functions: 5.00 MiB
      Mixer: 2.20 MiB
    Hamiltonian: 3.86 MiB
      Arrays: 3.74 MiB
      XC: 0.00 MiB
      Poisson: 0.00 MiB
      vbar: 0.12 MiB
    Wavefunctions: 61.86 MiB
      Arrays psit_nG: 43.86 MiB
      Eigensolver: 2.58 MiB
      Projections: 1.02 MiB
      Projectors: 12.09 MiB
      PW-descriptor: 2.32 MiB

Total number of cores used: 1

Number of atoms: 6
Number of atomic orbitals: 42
Number of bands in calculation: 36
Number of valence electrons: 52
Bands to converge: occupied

... initialized

Initializing position-dependent things.

Density initialized from atomic densities
Creating initial wave functions:
  36 bands from LCAO basis set

                  
                  
                  
                  
                  
       Te         
                  
                  
                  
                  
                  
                  
         Te       
                  
                  
                  
       W          
                  
                  
                  
                  
                  
                  
         W        
                  
         Te       
                  
                  
                  
                  
                  
                  
                  
                  
                  
       Te         
                  
                  
                  
                  

Positions:
   0 W      1.798000    1.038076    3.523750    ( 0.0000,  0.0000,  0.0000)
   1 W      1.798000   -1.038076   10.571250    ( 0.0000,  0.0000,  0.0000)
   2 Te     1.798000    1.038076   12.262650    ( 0.0000,  0.0000,  0.0000)
   3 Te     1.798000   -1.038076   -5.215150    ( 0.0000,  0.0000,  0.0000)
   4 Te     1.798000    1.038076    1.832350    ( 0.0000,  0.0000,  0.0000)
   5 Te     1.798000   -1.038076   19.310150    ( 0.0000,  0.0000,  0.0000)

Unit cell:
           periodic     x           y           z      points  spacing
  1. axis:    yes    1.798000   -3.114227    0.000000    20     0.1557
  2. axis:    yes    1.798000    3.114227    0.000000    20     0.1557
  3. axis:    yes    0.000000    0.000000   14.095000    72     0.1958

  Lengths:   3.596000   3.596000  14.095000
  Angles:   90.000000  90.000000 120.000000

Effective grid spacing dv^(1/3) = 0.1763

     iter     time        total  log10-change:
                         energy   eigst   dens
iter:   1 11:06:26   -92.077900
iter:   2 11:06:30   -89.898886   -0.70  -0.95
iter:   3 11:06:35   -88.581945   -1.25  -1.11
iter:   4 11:06:40   -87.845865   -1.48  -1.23
iter:   5 11:06:45   -87.531573   -1.64  -1.41
iter:   6 11:06:49   -87.524738   -2.41  -1.80
iter:   7 11:06:54   -87.517226c  -3.15  -1.88
iter:   8 11:06:59   -87.528457c  -2.73  -1.97
iter:   9 11:07:03   -87.526156c  -3.19  -2.28
iter:  10 11:07:08   -87.527463c  -3.90  -2.57
iter:  11 11:07:13   -87.525819c  -4.16  -2.59
iter:  12 11:07:18   -87.525741c  -4.77  -2.82
iter:  13 11:07:27   -87.525222c  -4.35  -2.88
iter:  14 11:07:38   -87.525272c  -5.49  -3.23
iter:  15 11:07:45   -87.525184c  -5.55  -3.25
iter:  16 11:07:52   -87.525267c  -5.39  -3.46
iter:  17 11:07:57   -87.525222c  -5.79  -3.47
iter:  18 11:08:03   -87.525227c  -6.52  -3.82
iter:  19 11:08:13   -87.525229c  -6.45  -3.90
iter:  20 11:08:29   -87.525209c  -7.23  -4.12c
iter:  21 11:08:43   -87.525208c  -7.72c -4.25c

Converged after 21 iterations.

Dipole moment: (-0.000000, -0.000000, -0.212719) |e|*Ang

Energy contributions relative to reference atoms: (reference = -1616751.480151)

Kinetic:       +536.069722
Potential:     -453.510068
External:        +0.000000
XC:            -168.103868
Entropy (-ST):   -0.077718
Local:           -1.942135
SIC:             +0.000000
--------------------------
Free energy:    -87.564067
Extrapolated:   -87.525208

Showing only first 2 kpts
 Kpt  Band  Eigenvalues  Occupancy
  0    24      7.22570    1.99998
  0    25      8.35405    1.07539
  0    26      9.42372    0.00005
  0    27      9.55238    0.00001

  1    24      7.22570    1.99998
  1    25      8.35405    1.07539
  1    26      9.42372    0.00005
  1    27      9.55238    0.00001


Fermi level: 8.36916

No gap
No difference between direct/indirect transitions
Timing:                              incl.     excl.
-----------------------------------------------------------
Hamiltonian:                         2.224     0.001   0.0% |
 Atomic:                             0.150     0.000   0.0% |
  XC Correction:                     0.149     0.149   0.1% |
 Calculate atomic Hamiltonians:      0.005     0.005   0.0% |
 Communicate:                        0.000     0.000   0.0% |
 Initialize Hamiltonian:             0.000     0.000   0.0% |
 Poisson:                            0.000     0.000   0.0% |
 XC 3D grid:                         2.067     0.142   0.1% |
  VdW-DF integral:                   1.925     0.009   0.0% |
   Convolution:                      0.129     0.129   0.1% |
   FFT:                              0.026     0.026   0.0% |
   gather:                           0.000     0.000   0.0% |
   hmm1:                             0.002     0.002   0.0% |
   hmm2:                             0.071     0.071   0.0% |
   iFFT:                             0.043     0.043   0.0% |
   potential:                        0.104     0.001   0.0% |
    collect:                         0.000     0.000   0.0% |
    p1:                              0.013     0.013   0.0% |
    p2:                              0.090     0.090   0.1% |
    sum:                             0.000     0.000   0.0% |
   splines:                          1.540     1.540   1.0% |
LCAO initialization:                 3.815     0.051   0.0% |
 LCAO eigensolver:                   1.757     0.001   0.0% |
  Calculate projections:             0.002     0.002   0.0% |
  DenseAtomicCorrection:             0.004     0.004   0.0% |
  Distribute overlap matrix:         0.000     0.000   0.0% |
  Orbital Layouts:                   0.883     0.883   0.6% |
  Potential matrix:                  0.169     0.169   0.1% |
  Sum over cells:                    0.697     0.697   0.5% |
 LCAO to grid:                       1.863     1.863   1.3% ||
 Set positions (LCAO WFS):           0.144     0.024   0.0% |
  Basic WFS set positions:           0.000     0.000   0.0% |
  Basis functions set positions:     0.000     0.000   0.0% |
  P tci:                             0.066     0.066   0.0% |
  ST tci:                            0.049     0.049   0.0% |
  mktci:                             0.004     0.004   0.0% |
PWDescriptor:                        0.013     0.013   0.0% |
SCF-cycle:                         141.212     0.248   0.2% |
 Davidson:                         117.385     7.979   5.4% |-|
  Apply H:                          15.650    15.435  10.5% |---|
   HMM T:                            0.215     0.215   0.1% |
  Subspace diag:                    17.175     0.045   0.0% |
   calc_h_matrix:                   16.068     0.620   0.4% |
    Apply H:                        15.448    15.227  10.3% |---|
     HMM T:                          0.221     0.221   0.1% |
   diagonalize:                      0.160     0.160   0.1% |
   rotate_psi:                       0.902     0.902   0.6% |
  calc. matrices:                   33.407     3.522   2.4% ||
   Apply H:                         29.884    29.489  20.0% |-------|
    HMM T:                           0.395     0.395   0.3% |
  diagonalize:                      41.322    41.322  28.0% |----------|
  rotate_psi:                        1.852     1.852   1.3% ||
 Density:                            8.623     0.000   0.0% |
  Atomic density matrices:           0.038     0.038   0.0% |
  Mix:                               2.949     2.949   2.0% ||
  Multipole moments:                 0.002     0.002   0.0% |
  Pseudo density:                    5.634     5.600   3.8% |-|
   Symmetrize density:               0.034     0.034   0.0% |
 Hamiltonian:                       14.846     0.016   0.0% |
  Atomic:                            3.058     0.010   0.0% |
   XC Correction:                    3.048     3.048   2.1% ||
  Calculate atomic Hamiltonians:     0.108     0.108   0.1% |
  Communicate:                       0.000     0.000   0.0% |
  Poisson:                           0.022     0.022   0.0% |
  XC 3D grid:                       11.641     2.665   1.8% ||
   VdW-DF integral:                  8.976     1.113   0.8% |
    Convolution:                     2.351     2.351   1.6% ||
    FFT:                             0.543     0.543   0.4% |
    gather:                          0.008     0.008   0.0% |
    hmm1:                            0.027     0.027   0.0% |
    hmm2:                            1.626     1.626   1.1% |
    iFFT:                            0.952     0.952   0.6% |
    potential:                       2.355     0.020   0.0% |
     collect:                        0.000     0.000   0.0% |
     p1:                             0.265     0.265   0.2% |
     p2:                             2.070     2.070   1.4% ||
     sum:                            0.000     0.000   0.0% |
    splines:                         0.000     0.000   0.0% |
 Orthonormalize:                     0.110     0.001   0.0% |
  calc_s_matrix:                     0.016     0.016   0.0% |
  inverse-cholesky:                  0.002     0.002   0.0% |
  projections:                       0.069     0.069   0.0% |
  rotate_psi_s:                      0.022     0.022   0.0% |
Set symmetry:                        0.003     0.003   0.0% |
Other:                               0.208     0.208   0.1% |
-----------------------------------------------------------
Total:                                       147.474 100.0%

Memory usage: 498.20 MiB
Date: Tue Apr  8 11:08:43 2025
