
  ___ ___ ___ _ _ _  
 |   |   |_  | | | | 
 | | | | | . | | | | 
 |__ |  _|___|_____|  25.1.0
 |___|_|             

User:   georgios-vourvachakis@georgios-vourvachakis-82K2
Date:   Tue Apr  8 11:15:31 2025
Arch:   x86_64
Pid:    24499
CWD:    /home/georgios-vourvachakis/Desktop/DFT_codes
Python: 3.12.3
gpaw:   /home/georgios-vourvachakis/Desktop/DFT_codes/.venv/lib/python3.12/site-packages/gpaw
_gpaw:  /home/georgios-vourvachakis/Desktop/DFT_codes/.venv/lib/python3.12/site-packages/
        _gpaw.cpython-312-x86_64-linux-gnu.so
ase:    /home/georgios-vourvachakis/Desktop/DFT_codes/.venv/lib/python3.12/site-packages/ase (version 3.24.0)
numpy:  /home/georgios-vourvachakis/Desktop/DFT_codes/.venv/lib/python3.12/site-packages/numpy (version 2.2.3)
scipy:  /home/georgios-vourvachakis/Desktop/DFT_codes/.venv/lib/python3.12/site-packages/scipy (version 1.15.1)
libxc:  5.2.3
units:  Angstrom and eV
cores: 1
OpenMP: False
OMP_NUM_THREADS: 1

Input parameters:
  kpts: [6 6 2]
  mode: {ecut: 480.0,
         name: pw}
  xc: optPBE-vdW

System changes: positions, numbers, cell, pbc, initial_charges, initial_magmoms 

Initialize ...

species:
  W:
    name: Tungsten
    id: c5cdf39eb2772a6eef4e39aea6cd5c6f
    Z: 74.0
    valence: 14
    core: 60
    charge: 0.0
    file: /home/georgios-vourvachakis/Desktop/DFT_codes/gpaw_datasets/gpaw-setups-0.9.20000/W.revPBE.gz
    compensation charges: {type: gauss,
                           rc: 0.40,
                           lmax: 2}
    cutoffs: {filter: 2.36,
              core: 3.02}
    projectors:
      #              energy  rcut
      - 5s(2.00)   -78.785   1.344
      - 6s(2.00)    -5.639   1.344
      - 5p(6.00)   -43.193   1.355
      - 6p(0.00)    -1.336   1.355
      - 5d(4.00)    -4.444   1.228
      -  d          22.768   1.228
  
    # Using partial waves for W as LCAO basis

  Te:
    name: Tellurium
    id: cecded85d882fd4df90837008c85fd5a
    Z: 52.0
    valence: 6
    core: 46
    charge: 0.0
    file: /home/georgios-vourvachakis/Desktop/DFT_codes/gpaw_datasets/gpaw-setups-0.9.20000/Te.revPBE.gz
    compensation charges: {type: gauss,
                           rc: 0.36,
                           lmax: 2}
    cutoffs: {filter: 2.09,
              core: 3.17}
    projectors:
      #              energy  rcut
      - 5s(2.00)   -15.027   1.180
      - 5p(4.00)    -5.913   1.196
      -  s          12.185   1.180
      -  p          21.299   1.196
      -  d           0.000   1.238
  
    # Using partial waves for Te as LCAO basis

Reference energy: -1616751.480151  # eV

Spin-paired calculation

Convergence criteria:
 Maximum [total energy] change in last 3 cyles: 0.0005 eV / valence electron
 Maximum integral of absolute [dens]ity change: 0.0001 electrons / valence electron
 Maximum integral of absolute [eigenst]ate change: 4e-08 eV^2 / valence electron
 Maximum number of scf [iter]ations: 333
 (Square brackets indicate name in SCF output, whereas a 'c' in
 the SCF output indicates the quantity has converged.)

Symmetries present (total): 6

  ( 1  1  0)  ( 1  0  0)  ( 0  1  0)  ( 0 -1  0)  (-1  0  0)  (-1 -1  0)
  ( 0 -1  0)  ( 0  1  0)  (-1 -1  0)  (-1  0  0)  ( 1  1  0)  ( 1  0  0)
  ( 0  0  1)  ( 0  0  1)  ( 0  0  1)  ( 0  0  1)  ( 0  0  1)  ( 0  0  1)
Note: your k-points are not as symmetric as your crystal!

72 k-points: 6 x 6 x 2 Monkhorst-Pack grid
21 k-points in the irreducible part of the Brillouin zone
       k-points in crystal coordinates                weights
   0:     0.08333333   -0.08333333   -0.25000000          2/72
   1:     0.08333333   -0.08333333    0.25000000          2/72
   2:     0.08333333    0.08333333    0.25000000          4/72
   3:     0.25000000   -0.25000000   -0.25000000          2/72
   4:     0.25000000   -0.25000000    0.25000000          2/72
   5:     0.25000000   -0.08333333   -0.25000000          4/72
   6:     0.25000000   -0.08333333    0.25000000          4/72
   7:     0.25000000    0.08333333   -0.25000000          4/72
   8:     0.25000000    0.08333333    0.25000000          4/72
   9:     0.25000000    0.25000000    0.25000000          4/72
          ...
  20:     0.41666667    0.41666667    0.25000000          4/72

Wave functions: Plane wave expansion
  Cutoff energy: 480.000 eV
  Number of coefficients (min, max): 3764, 3826
  Pulay-stress correction: 0.000000 eV/Ang^3 (de/decut=0.000000)
  Using Numpy's FFT
  ScaLapack parameters: grid=1x1, blocksize=None
  Wavefunction extrapolation:
    Improved wavefunction reuse through dual PAW basis 

Occupation numbers: Fermi-Dirac:
  width: 0.1000  # eV
 

Eigensolver
   Davidson(niter=2) 

Densities:
  Coarse grid: 20*20*72 grid
  Fine grid: 40*40*144 grid
  Total Charge: 0.000000 

Density mixing:
  Method: separate
  Backend: pulay
  Linear mixing parameter: 0.05
  old densities: 5
  Damping of long wavelength oscillations: 50 

Hamiltonian:
  XC and Coulomb potentials evaluated on a 40*40*144 grid
  Using the optPBE-vdW Exchange-Correlation functional
  External potential:
    NoExternalPotential
 

XC parameters: optPBE-vdW with 2 nearest neighbor stencil

Memory estimate:
  Process memory now: 498.20 MiB
  Calculator: 79.01 MiB
    Density: 12.93 MiB
      Arrays: 5.71 MiB
      Localized functions: 5.02 MiB
      Mixer: 2.20 MiB
    Hamiltonian: 3.86 MiB
      Arrays: 3.74 MiB
      XC: 0.00 MiB
      Poisson: 0.00 MiB
      vbar: 0.12 MiB
    Wavefunctions: 62.22 MiB
      Arrays psit_nG: 44.14 MiB
      Eigensolver: 2.59 MiB
      Projections: 1.02 MiB
      Projectors: 12.15 MiB
      PW-descriptor: 2.32 MiB

Total number of cores used: 1

Number of atoms: 6
Number of atomic orbitals: 42
Number of bands in calculation: 36
Number of valence electrons: 52
Bands to converge: occupied

... initialized

Initializing position-dependent things.

Density initialized from atomic densities
Creating initial wave functions:
  36 bands from LCAO basis set

                  
                  
                  
                  
                  
       Te         
                  
                  
                  
                  
                  
                  
         Te       
                  
                  
                  
       W          
                  
                  
                  
                  
                  
                  
         W        
                  
         Te       
                  
                  
                  
                  
                  
                  
                  
                  
                  
       Te         
                  
                  
                  
                  

Positions:
   0 W      1.798000    1.038076    3.542500    ( 0.0000,  0.0000,  0.0000)
   1 W      1.798000   -1.038076   10.627500    ( 0.0000,  0.0000,  0.0000)
   2 Te     1.798000    1.038076   12.327900    ( 0.0000,  0.0000,  0.0000)
   3 Te     1.798000   -1.038076   -5.242900    ( 0.0000,  0.0000,  0.0000)
   4 Te     1.798000    1.038076    1.842100    ( 0.0000,  0.0000,  0.0000)
   5 Te     1.798000   -1.038076   19.412900    ( 0.0000,  0.0000,  0.0000)

Unit cell:
           periodic     x           y           z      points  spacing
  1. axis:    yes    1.798000   -3.114227    0.000000    20     0.1557
  2. axis:    yes    1.798000    3.114227    0.000000    20     0.1557
  3. axis:    yes    0.000000    0.000000   14.170000    72     0.1968

  Lengths:   3.596000   3.596000  14.170000
  Angles:   90.000000  90.000000 120.000000

Effective grid spacing dv^(1/3) = 0.1766

     iter     time        total  log10-change:
                         energy   eigst   dens
iter:   1 11:15:45   -93.345849
iter:   2 11:15:58   -91.276691   -0.71  -0.95
iter:   3 11:16:08   -90.015151   -1.27  -1.11
iter:   4 11:16:18   -89.284943   -1.49  -1.23
iter:   5 11:16:29   -88.976864   -1.65  -1.41
iter:   6 11:16:41   -88.969485   -2.42  -1.80
iter:   7 11:16:52   -88.963109c  -3.16  -1.88
iter:   8 11:17:02   -88.974105c  -2.70  -1.96
iter:   9 11:17:13   -88.971031c  -3.21  -2.28
iter:  10 11:17:25   -88.972375c  -3.89  -2.57
iter:  11 11:17:36   -88.970754c  -4.19  -2.60
iter:  12 11:17:47   -88.970695c  -4.84  -2.84
iter:  13 11:18:01   -88.970245c  -4.37  -2.90
iter:  14 11:18:09   -88.970299c  -5.46  -3.27
iter:  15 11:18:16   -88.970205c  -5.48  -3.30
iter:  16 11:18:22   -88.970220c  -6.11  -3.53
iter:  17 11:18:28   -88.970254c  -6.37  -3.65
iter:  18 11:18:34   -88.970264c  -6.75  -3.84
iter:  19 11:18:40   -88.970240c  -6.73  -3.92
iter:  20 11:18:47   -88.970238c  -7.89c -4.20c

Converged after 20 iterations.

Dipole moment: (-0.000000, -0.000000, -0.204302) |e|*Ang

Energy contributions relative to reference atoms: (reference = -1616751.480151)

Kinetic:       +523.762552
Potential:     -443.671702
External:        +0.000000
XC:            -167.070828
Entropy (-ST):   -0.073309
Local:           -1.953605
SIC:             +0.000000
--------------------------
Free energy:    -89.006892
Extrapolated:   -88.970238

Showing only first 2 kpts
 Kpt  Band  Eigenvalues  Occupancy
  0    24      7.12505    1.99998
  0    25      8.23326    1.24887
  0    26      9.35871    0.00004
  0    27      9.48177    0.00001

  1    24      7.12505    1.99998
  1    25      8.23326    1.24887
  1    26      9.35871    0.00004
  1    27      9.48177    0.00001


Fermi level: 8.28410

No gap
No difference between direct/indirect transitions
Timing:                              incl.     excl.
-----------------------------------------------------------
Hamiltonian:                         2.518     0.001   0.0% |
 Atomic:                             0.160     0.000   0.0% |
  XC Correction:                     0.160     0.160   0.1% |
 Calculate atomic Hamiltonians:      0.006     0.006   0.0% |
 Communicate:                        0.000     0.000   0.0% |
 Initialize Hamiltonian:             0.000     0.000   0.0% |
 Poisson:                            0.001     0.001   0.0% |
 XC 3D grid:                         2.350     0.150   0.1% |
  VdW-DF integral:                   2.201     0.064   0.0% |
   Convolution:                      0.146     0.146   0.1% |
   FFT:                              0.033     0.033   0.0% |
   gather:                           0.000     0.000   0.0% |
   hmm1:                             0.002     0.002   0.0% |
   hmm2:                             0.089     0.089   0.0% |
   iFFT:                             0.045     0.045   0.0% |
   potential:                        0.124     0.001   0.0% |
    collect:                         0.000     0.000   0.0% |
    p1:                              0.014     0.014   0.0% |
    p2:                              0.109     0.109   0.1% |
    sum:                             0.000     0.000   0.0% |
   splines:                          1.699     1.699   0.9% |
LCAO initialization:                 3.735     0.052   0.0% |
 LCAO eigensolver:                   1.425     0.001   0.0% |
  Calculate projections:             0.002     0.002   0.0% |
  DenseAtomicCorrection:             0.007     0.007   0.0% |
  Distribute overlap matrix:         0.001     0.001   0.0% |
  Orbital Layouts:                   0.731     0.731   0.4% |
  Potential matrix:                  0.175     0.175   0.1% |
  Sum over cells:                    0.509     0.509   0.3% |
 LCAO to grid:                       2.106     2.106   1.1% |
 Set positions (LCAO WFS):           0.152     0.025   0.0% |
  Basic WFS set positions:           0.000     0.000   0.0% |
  Basis functions set positions:     0.000     0.000   0.0% |
  P tci:                             0.074     0.074   0.0% |
  ST tci:                            0.050     0.050   0.0% |
  mktci:                             0.004     0.004   0.0% |
PWDescriptor:                        0.013     0.013   0.0% |
SCF-cycle:                         189.383     0.239   0.1% |
 Davidson:                         162.508     8.482   4.3% |-|
  Apply H:                          21.715    21.472  11.0% |---|
   HMM T:                            0.243     0.243   0.1% |
  Subspace diag:                    23.215     0.040   0.0% |
   calc_h_matrix:                   22.032     0.714   0.4% |
    Apply H:                        21.318    21.074  10.8% |---|
     HMM T:                          0.244     0.244   0.1% |
   diagonalize:                      0.166     0.166   0.1% |
   rotate_psi:                       0.977     0.977   0.5% |
  calc. matrices:                   35.307     3.606   1.8% ||
   Apply H:                         31.701    31.237  15.9% |-----|
    HMM T:                           0.464     0.464   0.2% |
  diagonalize:                      71.606    71.606  36.6% |--------------|
  rotate_psi:                        2.184     2.184   1.1% |
 Density:                            9.956     0.000   0.0% |
  Atomic density matrices:           0.044     0.044   0.0% |
  Mix:                               2.804     2.804   1.4% ||
  Multipole moments:                 0.002     0.002   0.0% |
  Pseudo density:                    7.106     7.072   3.6% ||
   Symmetrize density:               0.034     0.034   0.0% |
 Hamiltonian:                       16.552     0.018   0.0% |
  Atomic:                            2.958     0.012   0.0% |
   XC Correction:                    2.947     2.947   1.5% ||
  Calculate atomic Hamiltonians:     0.128     0.128   0.1% |
  Communicate:                       0.000     0.000   0.0% |
  Poisson:                           0.011     0.011   0.0% |
  XC 3D grid:                       13.436     2.818   1.4% ||
   VdW-DF integral:                 10.618     1.474   0.8% |
    Convolution:                     2.432     2.432   1.2% |
    FFT:                             0.716     0.716   0.4% |
    gather:                          0.009     0.009   0.0% |
    hmm1:                            0.033     0.033   0.0% |
    hmm2:                            2.023     2.023   1.0% |
    iFFT:                            1.085     1.085   0.6% |
    potential:                       2.847     0.024   0.0% |
     collect:                        0.000     0.000   0.0% |
     p1:                             0.264     0.264   0.1% |
     p2:                             2.559     2.559   1.3% ||
     sum:                            0.000     0.000   0.0% |
    splines:                         0.000     0.000   0.0% |
 Orthonormalize:                     0.127     0.002   0.0% |
  calc_s_matrix:                     0.017     0.017   0.0% |
  inverse-cholesky:                  0.003     0.003   0.0% |
  projections:                       0.081     0.081   0.0% |
  rotate_psi_s:                      0.025     0.025   0.0% |
Set symmetry:                        0.002     0.002   0.0% |
Other:                               0.237     0.237   0.1% |
-----------------------------------------------------------
Total:                                       195.889 100.0%

Memory usage: 498.20 MiB
Date: Tue Apr  8 11:18:47 2025
