
  ___ ___ ___ _ _ _  
 |   |   |_  | | | | 
 | | | | | . | | | | 
 |__ |  _|___|_____|  25.1.0
 |___|_|             

User:   georgios-vourvachakis@georgios-vourvachakis-82K2
Date:   Tue Apr  8 11:08:43 2025
Arch:   x86_64
Pid:    24499
CWD:    /home/georgios-vourvachakis/Desktop/DFT_codes
Python: 3.12.3
gpaw:   /home/georgios-vourvachakis/Desktop/DFT_codes/.venv/lib/python3.12/site-packages/gpaw
_gpaw:  /home/georgios-vourvachakis/Desktop/DFT_codes/.venv/lib/python3.12/site-packages/
        _gpaw.cpython-312-x86_64-linux-gnu.so
ase:    /home/georgios-vourvachakis/Desktop/DFT_codes/.venv/lib/python3.12/site-packages/ase (version 3.24.0)
numpy:  /home/georgios-vourvachakis/Desktop/DFT_codes/.venv/lib/python3.12/site-packages/numpy (version 2.2.3)
scipy:  /home/georgios-vourvachakis/Desktop/DFT_codes/.venv/lib/python3.12/site-packages/scipy (version 1.15.1)
libxc:  5.2.3
units:  Angstrom and eV
cores: 1
OpenMP: False
OMP_NUM_THREADS: 1

Input parameters:
  kpts: [6 6 2]
  mode: {ecut: 480.0,
         name: pw}
  xc: optPBE-vdW

System changes: positions, numbers, cell, pbc, initial_charges, initial_magmoms 

Initialize ...

species:
  W:
    name: Tungsten
    id: c5cdf39eb2772a6eef4e39aea6cd5c6f
    Z: 74.0
    valence: 14
    core: 60
    charge: 0.0
    file: /home/georgios-vourvachakis/Desktop/DFT_codes/gpaw_datasets/gpaw-setups-0.9.20000/W.revPBE.gz
    compensation charges: {type: gauss,
                           rc: 0.40,
                           lmax: 2}
    cutoffs: {filter: 2.36,
              core: 3.02}
    projectors:
      #              energy  rcut
      - 5s(2.00)   -78.785   1.344
      - 6s(2.00)    -5.639   1.344
      - 5p(6.00)   -43.193   1.355
      - 6p(0.00)    -1.336   1.355
      - 5d(4.00)    -4.444   1.228
      -  d          22.768   1.228
  
    # Using partial waves for W as LCAO basis

  Te:
    name: Tellurium
    id: cecded85d882fd4df90837008c85fd5a
    Z: 52.0
    valence: 6
    core: 46
    charge: 0.0
    file: /home/georgios-vourvachakis/Desktop/DFT_codes/gpaw_datasets/gpaw-setups-0.9.20000/Te.revPBE.gz
    compensation charges: {type: gauss,
                           rc: 0.36,
                           lmax: 2}
    cutoffs: {filter: 2.09,
              core: 3.17}
    projectors:
      #              energy  rcut
      - 5s(2.00)   -15.027   1.180
      - 5p(4.00)    -5.913   1.196
      -  s          12.185   1.180
      -  p          21.299   1.196
      -  d           0.000   1.238
  
    # Using partial waves for Te as LCAO basis

Reference energy: -1616751.480151  # eV

Spin-paired calculation

Convergence criteria:
 Maximum [total energy] change in last 3 cyles: 0.0005 eV / valence electron
 Maximum integral of absolute [dens]ity change: 0.0001 electrons / valence electron
 Maximum integral of absolute [eigenst]ate change: 4e-08 eV^2 / valence electron
 Maximum number of scf [iter]ations: 333
 (Square brackets indicate name in SCF output, whereas a 'c' in
 the SCF output indicates the quantity has converged.)

Symmetries present (total): 6

  ( 1  1  0)  ( 1  0  0)  ( 0  1  0)  ( 0 -1  0)  (-1  0  0)  (-1 -1  0)
  ( 0 -1  0)  ( 0  1  0)  (-1 -1  0)  (-1  0  0)  ( 1  1  0)  ( 1  0  0)
  ( 0  0  1)  ( 0  0  1)  ( 0  0  1)  ( 0  0  1)  ( 0  0  1)  ( 0  0  1)
Note: your k-points are not as symmetric as your crystal!

72 k-points: 6 x 6 x 2 Monkhorst-Pack grid
21 k-points in the irreducible part of the Brillouin zone
       k-points in crystal coordinates                weights
   0:     0.08333333   -0.08333333   -0.25000000          2/72
   1:     0.08333333   -0.08333333    0.25000000          2/72
   2:     0.08333333    0.08333333    0.25000000          4/72
   3:     0.25000000   -0.25000000   -0.25000000          2/72
   4:     0.25000000   -0.25000000    0.25000000          2/72
   5:     0.25000000   -0.08333333   -0.25000000          4/72
   6:     0.25000000   -0.08333333    0.25000000          4/72
   7:     0.25000000    0.08333333   -0.25000000          4/72
   8:     0.25000000    0.08333333    0.25000000          4/72
   9:     0.25000000    0.25000000    0.25000000          4/72
          ...
  20:     0.41666667    0.41666667    0.25000000          4/72

Wave functions: Plane wave expansion
  Cutoff energy: 480.000 eV
  Number of coefficients (min, max): 3750, 3807
  Pulay-stress correction: 0.000000 eV/Ang^3 (de/decut=0.000000)
  Using Numpy's FFT
  ScaLapack parameters: grid=1x1, blocksize=None
  Wavefunction extrapolation:
    Improved wavefunction reuse through dual PAW basis 

Occupation numbers: Fermi-Dirac:
  width: 0.1000  # eV
 

Eigensolver
   Davidson(niter=2) 

Densities:
  Coarse grid: 20*20*72 grid
  Fine grid: 40*40*144 grid
  Total Charge: 0.000000 

Density mixing:
  Method: separate
  Backend: pulay
  Linear mixing parameter: 0.05
  old densities: 5
  Damping of long wavelength oscillations: 50 

Hamiltonian:
  XC and Coulomb potentials evaluated on a 40*40*144 grid
  Using the optPBE-vdW Exchange-Correlation functional
  External potential:
    NoExternalPotential
 

XC parameters: optPBE-vdW with 2 nearest neighbor stencil

Memory estimate:
  Process memory now: 498.20 MiB
  Calculator: 78.71 MiB
    Density: 12.92 MiB
      Arrays: 5.71 MiB
      Localized functions: 5.01 MiB
      Mixer: 2.20 MiB
    Hamiltonian: 3.86 MiB
      Arrays: 3.74 MiB
      XC: 0.00 MiB
      Poisson: 0.00 MiB
      vbar: 0.12 MiB
    Wavefunctions: 61.94 MiB
      Arrays psit_nG: 43.92 MiB
      Eigensolver: 2.58 MiB
      Projections: 1.02 MiB
      Projectors: 12.10 MiB
      PW-descriptor: 2.32 MiB

Total number of cores used: 1

Number of atoms: 6
Number of atomic orbitals: 42
Number of bands in calculation: 36
Number of valence electrons: 52
Bands to converge: occupied

... initialized

Initializing position-dependent things.

Density initialized from atomic densities
Creating initial wave functions:
  36 bands from LCAO basis set

                  
                  
                  
                  
                  
       Te         
                  
                  
                  
                  
                  
                  
         Te       
                  
                  
                  
       W          
                  
                  
                  
                  
                  
                  
         W        
                  
         Te       
                  
                  
                  
                  
                  
                  
                  
                  
                  
       Te         
                  
                  
                  
                  

Positions:
   0 W      1.798000    1.038076    3.530000    ( 0.0000,  0.0000,  0.0000)
   1 W      1.798000   -1.038076   10.590000    ( 0.0000,  0.0000,  0.0000)
   2 Te     1.798000    1.038076   12.284400    ( 0.0000,  0.0000,  0.0000)
   3 Te     1.798000   -1.038076   -5.224400    ( 0.0000,  0.0000,  0.0000)
   4 Te     1.798000    1.038076    1.835600    ( 0.0000,  0.0000,  0.0000)
   5 Te     1.798000   -1.038076   19.344400    ( 0.0000,  0.0000,  0.0000)

Unit cell:
           periodic     x           y           z      points  spacing
  1. axis:    yes    1.798000   -3.114227    0.000000    20     0.1557
  2. axis:    yes    1.798000    3.114227    0.000000    20     0.1557
  3. axis:    yes    0.000000    0.000000   14.120000    72     0.1961

  Lengths:   3.596000   3.596000  14.120000
  Angles:   90.000000  90.000000 120.000000

Effective grid spacing dv^(1/3) = 0.1764

     iter     time        total  log10-change:
                         energy   eigst   dens
iter:   1 11:09:02   -92.504122
iter:   2 11:09:07   -90.362327   -0.71  -0.95
iter:   3 11:09:15   -89.064312   -1.25  -1.11
iter:   4 11:09:21   -88.330142   -1.48  -1.23
iter:   5 11:09:26   -88.017910   -1.64  -1.41
iter:   6 11:09:32   -88.010903   -2.41  -1.80
iter:   7 11:09:39   -88.003726c  -3.15  -1.88
iter:   8 11:09:46   -88.014890c  -2.72  -1.97
iter:   9 11:09:52   -88.012336c  -3.19  -2.28
iter:  10 11:10:00   -88.013651c  -3.90  -2.57
iter:  11 11:10:09   -88.012026c  -4.18  -2.59
iter:  12 11:10:15   -88.011953c  -4.79  -2.83
iter:  13 11:10:23   -88.011450c  -4.35  -2.89
iter:  14 11:10:30   -88.011502c  -5.48  -3.25
iter:  15 11:10:40   -88.011415c  -5.57  -3.28
iter:  16 11:10:53   -88.011484c  -5.49  -3.47
iter:  17 11:11:05   -88.011450c  -5.87  -3.51
iter:  18 11:11:18   -88.011458c  -6.58  -3.83
iter:  19 11:11:29   -88.011458c  -6.43  -3.90
iter:  20 11:11:40   -88.011438c  -7.30  -4.13c
iter:  21 11:11:52   -88.011437c  -8.20c -4.20c

Converged after 21 iterations.

Dipole moment: (-0.000000, -0.000000, -0.209774) |e|*Ang

Energy contributions relative to reference atoms: (reference = -1616751.480151)

Kinetic:       +531.993391
Potential:     -450.251537
External:        +0.000000
XC:            -167.761589
Entropy (-ST):   -0.076275
Local:           -1.953565
SIC:             +0.000000
--------------------------
Free energy:    -88.049575
Extrapolated:   -88.011437

Showing only first 2 kpts
 Kpt  Band  Eigenvalues  Occupancy
  0    24      7.19185    1.99998
  0    25      8.31359    1.13529
  0    26      9.40204    0.00005
  0    27      9.52881    0.00001

  1    24      7.19185    1.99998
  1    25      8.31359    1.13529
  1    26      9.40204    0.00005
  1    27      9.52881    0.00001


Fermi level: 8.34082

No gap
No difference between direct/indirect transitions
Timing:                              incl.     excl.
-----------------------------------------------------------
Hamiltonian:                         2.683     0.001   0.0% |
 Atomic:                             0.180     0.001   0.0% |
  XC Correction:                     0.180     0.180   0.1% |
 Calculate atomic Hamiltonians:      0.006     0.006   0.0% |
 Communicate:                        0.000     0.000   0.0% |
 Initialize Hamiltonian:             0.000     0.000   0.0% |
 Poisson:                            0.001     0.001   0.0% |
 XC 3D grid:                         2.495     0.149   0.1% |
  VdW-DF integral:                   2.346     0.186   0.1% |
   Convolution:                      0.158     0.158   0.1% |
   FFT:                              0.042     0.042   0.0% |
   gather:                           0.000     0.000   0.0% |
   hmm1:                             0.002     0.002   0.0% |
   hmm2:                             0.105     0.105   0.1% |
   iFFT:                             0.050     0.050   0.0% |
   potential:                        0.147     0.002   0.0% |
    collect:                         0.000     0.000   0.0% |
    p1:                              0.014     0.014   0.0% |
    p2:                              0.131     0.131   0.1% |
    sum:                             0.000     0.000   0.0% |
   splines:                          1.655     1.655   0.9% |
LCAO initialization:                 4.230     0.054   0.0% |
 LCAO eigensolver:                   1.289     0.001   0.0% |
  Calculate projections:             0.002     0.002   0.0% |
  DenseAtomicCorrection:             0.006     0.006   0.0% |
  Distribute overlap matrix:         0.001     0.001   0.0% |
  Orbital Layouts:                   0.564     0.564   0.3% |
  Potential matrix:                  0.185     0.185   0.1% |
  Sum over cells:                    0.530     0.530   0.3% |
 LCAO to grid:                       2.731     2.731   1.4% ||
 Set positions (LCAO WFS):           0.156     0.026   0.0% |
  Basic WFS set positions:           0.000     0.000   0.0% |
  Basis functions set positions:     0.000     0.000   0.0% |
  P tci:                             0.075     0.075   0.0% |
  ST tci:                            0.051     0.051   0.0% |
  mktci:                             0.004     0.004   0.0% |
PWDescriptor:                        0.014     0.014   0.0% |
SCF-cycle:                         181.653     0.250   0.1% |
 Davidson:                         156.155     8.862   4.7% |-|
  Apply H:                          16.349    16.115   8.5% |--|
   HMM T:                            0.234     0.234   0.1% |
  Subspace diag:                    18.490     0.044   0.0% |
   calc_h_matrix:                   17.219     0.704   0.4% |
    Apply H:                        16.516    16.272   8.6% |--|
     HMM T:                          0.244     0.244   0.1% |
   diagonalize:                      0.176     0.176   0.1% |
   rotate_psi:                       1.050     1.050   0.6% |
  calc. matrices:                   33.853     3.710   2.0% ||
   Apply H:                         30.142    29.673  15.7% |-----|
    HMM T:                           0.469     0.469   0.2% |
  diagonalize:                      76.420    76.420  40.5% |---------------|
  rotate_psi:                        2.182     2.182   1.2% |
 Density:                            8.657     0.000   0.0% |
  Atomic density matrices:           0.042     0.042   0.0% |
  Mix:                               2.727     2.727   1.4% ||
  Multipole moments:                 0.002     0.002   0.0% |
  Pseudo density:                    5.886     5.851   3.1% ||
   Symmetrize density:               0.035     0.035   0.0% |
 Hamiltonian:                       16.463     0.038   0.0% |
  Atomic:                            3.084     0.010   0.0% |
   XC Correction:                    3.074     3.074   1.6% ||
  Calculate atomic Hamiltonians:     0.119     0.119   0.1% |
  Communicate:                       0.000     0.000   0.0% |
  Poisson:                           0.012     0.012   0.0% |
  XC 3D grid:                       13.211     2.747   1.5% ||
   VdW-DF integral:                 10.464     1.666   0.9% |
    Convolution:                     2.515     2.515   1.3% ||
    FFT:                             0.670     0.670   0.4% |
    gather:                          0.009     0.009   0.0% |
    hmm1:                            0.029     0.029   0.0% |
    hmm2:                            1.886     1.886   1.0% |
    iFFT:                            1.043     1.043   0.6% |
    potential:                       2.647     0.022   0.0% |
     collect:                        0.000     0.000   0.0% |
     p1:                             0.273     0.273   0.1% |
     p2:                             2.352     2.352   1.2% |
     sum:                            0.000     0.000   0.0% |
    splines:                         0.000     0.000   0.0% |
 Orthonormalize:                     0.127     0.002   0.0% |
  calc_s_matrix:                     0.017     0.017   0.0% |
  inverse-cholesky:                  0.003     0.003   0.0% |
  projections:                       0.079     0.079   0.0% |
  rotate_psi_s:                      0.026     0.026   0.0% |
Set symmetry:                        0.003     0.003   0.0% |
Other:                               0.275     0.275   0.1% |
-----------------------------------------------------------
Total:                                       188.858 100.0%

Memory usage: 498.20 MiB
Date: Tue Apr  8 11:11:52 2025
