
  ___ ___ ___ _ _ _  
 |   |   |_  | | | | 
 | | | | | . | | | | 
 |__ |  _|___|_____|  25.1.0
 |___|_|             

User:   georgios-vourvachakis@georgios-vourvachakis-82K2
Date:   Tue Apr  8 10:39:48 2025
Arch:   x86_64
Pid:    24499
CWD:    /home/georgios-vourvachakis/Desktop/DFT_codes
Python: 3.12.3
gpaw:   /home/georgios-vourvachakis/Desktop/DFT_codes/.venv/lib/python3.12/site-packages/gpaw
_gpaw:  /home/georgios-vourvachakis/Desktop/DFT_codes/.venv/lib/python3.12/site-packages/
        _gpaw.cpython-312-x86_64-linux-gnu.so
ase:    /home/georgios-vourvachakis/Desktop/DFT_codes/.venv/lib/python3.12/site-packages/ase (version 3.24.0)
numpy:  /home/georgios-vourvachakis/Desktop/DFT_codes/.venv/lib/python3.12/site-packages/numpy (version 2.2.3)
scipy:  /home/georgios-vourvachakis/Desktop/DFT_codes/.venv/lib/python3.12/site-packages/scipy (version 1.15.1)
libxc:  5.2.3
units:  Angstrom and eV
cores: 1
OpenMP: False
OMP_NUM_THREADS: 1

Input parameters:
  kpts: [6 6 2]
  mode: {ecut: 480.0,
         name: pw}
  xc: optPBE-vdW

System changes: positions, numbers, cell, pbc, initial_charges, initial_magmoms 

Initialize ...

species:
  W:
    name: Tungsten
    id: c5cdf39eb2772a6eef4e39aea6cd5c6f
    Z: 74.0
    valence: 14
    core: 60
    charge: 0.0
    file: /home/georgios-vourvachakis/Desktop/DFT_codes/gpaw_datasets/gpaw-setups-0.9.20000/W.revPBE.gz
    compensation charges: {type: gauss,
                           rc: 0.40,
                           lmax: 2}
    cutoffs: {filter: 2.36,
              core: 3.02}
    projectors:
      #              energy  rcut
      - 5s(2.00)   -78.785   1.344
      - 6s(2.00)    -5.639   1.344
      - 5p(6.00)   -43.193   1.355
      - 6p(0.00)    -1.336   1.355
      - 5d(4.00)    -4.444   1.228
      -  d          22.768   1.228
  
    # Using partial waves for W as LCAO basis

  Te:
    name: Tellurium
    id: cecded85d882fd4df90837008c85fd5a
    Z: 52.0
    valence: 6
    core: 46
    charge: 0.0
    file: /home/georgios-vourvachakis/Desktop/DFT_codes/gpaw_datasets/gpaw-setups-0.9.20000/Te.revPBE.gz
    compensation charges: {type: gauss,
                           rc: 0.36,
                           lmax: 2}
    cutoffs: {filter: 2.09,
              core: 3.17}
    projectors:
      #              energy  rcut
      - 5s(2.00)   -15.027   1.180
      - 5p(4.00)    -5.913   1.196
      -  s          12.185   1.180
      -  p          21.299   1.196
      -  d           0.000   1.238
  
    # Using partial waves for Te as LCAO basis

Reference energy: -1616751.480151  # eV

Spin-paired calculation

Convergence criteria:
 Maximum [total energy] change in last 3 cyles: 0.0005 eV / valence electron
 Maximum integral of absolute [dens]ity change: 0.0001 electrons / valence electron
 Maximum integral of absolute [eigenst]ate change: 4e-08 eV^2 / valence electron
 Maximum number of scf [iter]ations: 333
 (Square brackets indicate name in SCF output, whereas a 'c' in
 the SCF output indicates the quantity has converged.)

Symmetries present (total): 6

  ( 1  1  0)  ( 1  0  0)  ( 0  1  0)  ( 0 -1  0)  (-1  0  0)  (-1 -1  0)
  ( 0 -1  0)  ( 0  1  0)  (-1 -1  0)  (-1  0  0)  ( 1  1  0)  ( 1  0  0)
  ( 0  0  1)  ( 0  0  1)  ( 0  0  1)  ( 0  0  1)  ( 0  0  1)  ( 0  0  1)
Note: your k-points are not as symmetric as your crystal!

72 k-points: 6 x 6 x 2 Monkhorst-Pack grid
21 k-points in the irreducible part of the Brillouin zone
       k-points in crystal coordinates                weights
   0:     0.08333333   -0.08333333   -0.25000000          2/72
   1:     0.08333333   -0.08333333    0.25000000          2/72
   2:     0.08333333    0.08333333    0.25000000          4/72
   3:     0.25000000   -0.25000000   -0.25000000          2/72
   4:     0.25000000   -0.25000000    0.25000000          2/72
   5:     0.25000000   -0.08333333   -0.25000000          4/72
   6:     0.25000000   -0.08333333    0.25000000          4/72
   7:     0.25000000    0.08333333   -0.25000000          4/72
   8:     0.25000000    0.08333333    0.25000000          4/72
   9:     0.25000000    0.25000000    0.25000000          4/72
          ...
  20:     0.41666667    0.41666667    0.25000000          4/72

Wave functions: Plane wave expansion
  Cutoff energy: 480.000 eV
  Number of coefficients (min, max): 3645, 3685
  Pulay-stress correction: 0.000000 eV/Ang^3 (de/decut=0.000000)
  Using Numpy's FFT
  ScaLapack parameters: grid=1x1, blocksize=None
  Wavefunction extrapolation:
    Improved wavefunction reuse through dual PAW basis 

Occupation numbers: Fermi-Dirac:
  width: 0.1000  # eV
 

Eigensolver
   Davidson(niter=2) 

Densities:
  Coarse grid: 18*18*72 grid
  Fine grid: 36*36*144 grid
  Total Charge: 0.000000 

Density mixing:
  Method: separate
  Backend: pulay
  Linear mixing parameter: 0.05
  old densities: 5
  Damping of long wavelength oscillations: 50 

Hamiltonian:
  XC and Coulomb potentials evaluated on a 36*36*144 grid
  Using the optPBE-vdW Exchange-Correlation functional
  External potential:
    NoExternalPotential
 

XC parameters: optPBE-vdW with 2 nearest neighbor stencil

Memory estimate:
  Process memory now: 453.68 MiB
  Calculator: 74.26 MiB
    Density: 11.27 MiB
      Arrays: 4.63 MiB
      Localized functions: 4.86 MiB
      Mixer: 1.78 MiB
    Hamiltonian: 3.14 MiB
      Arrays: 3.03 MiB
      XC: 0.00 MiB
      Poisson: 0.00 MiB
      vbar: 0.12 MiB
    Wavefunctions: 59.85 MiB
      Arrays psit_nG: 42.51 MiB
      Eigensolver: 2.50 MiB
      Projections: 1.02 MiB
      Projectors: 11.75 MiB
      PW-descriptor: 2.07 MiB

Total number of cores used: 1

Number of atoms: 6
Number of atomic orbitals: 42
Number of bands in calculation: 36
Number of valence electrons: 52
Bands to converge: occupied

... initialized

Initializing position-dependent things.

Density initialized from atomic densities
Creating initial wave functions:
  36 bands from LCAO basis set

                  
                  
                  
                  
                  
       Te         
                  
                  
                  
                  
                  
                  
         Te       
                  
                  
                  
       W          
                  
                  
                  
                  
                  
                  
         W        
                  
         Te       
                  
                  
                  
                  
                  
                  
                  
                  
                  
       Te         
                  
                  
                  
                  

Positions:
   0 W      1.773000    1.023642    3.523750    ( 0.0000,  0.0000,  0.0000)
   1 W      1.773000   -1.023642   10.571250    ( 0.0000,  0.0000,  0.0000)
   2 Te     1.773000    1.023642   12.262650    ( 0.0000,  0.0000,  0.0000)
   3 Te     1.773000   -1.023642   -5.215150    ( 0.0000,  0.0000,  0.0000)
   4 Te     1.773000    1.023642    1.832350    ( 0.0000,  0.0000,  0.0000)
   5 Te     1.773000   -1.023642   19.310150    ( 0.0000,  0.0000,  0.0000)

Unit cell:
           periodic     x           y           z      points  spacing
  1. axis:    yes    1.773000   -3.070926    0.000000    18     0.1706
  2. axis:    yes    1.773000    3.070926    0.000000    18     0.1706
  3. axis:    yes    0.000000    0.000000   14.095000    72     0.1958

  Lengths:   3.546000   3.546000  14.095000
  Angles:   90.000000  90.000000 120.000000

Effective grid spacing dv^(1/3) = 0.1874

     iter     time        total  log10-change:
                         energy   eigst   dens
iter:   1 10:39:58   -91.921905
iter:   2 10:40:03   -89.748689   -0.71  -0.95
iter:   3 10:40:08   -88.407751   -1.25  -1.11
iter:   4 10:40:13   -87.693787   -1.46  -1.23
iter:   5 10:40:18   -87.370522   -1.65  -1.41
iter:   6 10:40:23   -87.362239   -2.48  -1.81
iter:   7 10:40:28   -87.357540c  -3.35  -1.88
iter:   8 10:40:33   -87.368666c  -2.66  -1.94
iter:   9 10:40:39   -87.365117c  -3.24  -2.26
iter:  10 10:40:45   -87.366620c  -3.79  -2.57
iter:  11 10:40:50   -87.365054c  -4.05  -2.61
iter:  12 10:40:56   -87.364965c  -4.93  -2.95
iter:  13 10:41:00   -87.364750c  -4.80  -3.02
iter:  14 10:41:05   -87.364759c  -5.64  -3.21
iter:  15 10:41:10   -87.364786c  -5.37  -3.24
iter:  16 10:41:15   -87.364812c  -6.09  -3.62
iter:  17 10:41:20   -87.364824c  -6.47  -3.79
iter:  18 10:41:25   -87.364807c  -6.99  -3.90
iter:  19 10:41:31   -87.364775c  -6.84  -4.04c
iter:  20 10:41:35   -87.364771c  -8.03c -4.23c

Converged after 20 iterations.

Dipole moment: (-0.000000, -0.000000, -0.193168) |e|*Ang

Energy contributions relative to reference atoms: (reference = -1616751.480151)

Kinetic:       +544.574291
Potential:     -460.337716
External:        +0.000000
XC:            -169.580556
Entropy (-ST):   -0.071825
Local:           -1.984877
SIC:             +0.000000
--------------------------
Free energy:    -87.400683
Extrapolated:   -87.364771

Showing only first 2 kpts
 Kpt  Band  Eigenvalues  Occupancy
  0    24      7.47989    1.99999
  0    25      8.60590    1.42141
  0    26      9.88960    0.00001
  0    27     10.01752    0.00000

  1    24      7.47989    1.99999
  1    25      8.60590    1.42141
  1    26      9.88960    0.00001
  1    27     10.01752    0.00000


Fermi level: 8.69579

No gap
No difference between direct/indirect transitions
Timing:                              incl.     excl.
-----------------------------------------------------------
Hamiltonian:                         2.278     0.001   0.0% |
 Atomic:                             0.151     0.001   0.0% |
  XC Correction:                     0.151     0.151   0.1% |
 Calculate atomic Hamiltonians:      0.029     0.029   0.0% |
 Communicate:                        0.000     0.000   0.0% |
 Initialize Hamiltonian:             0.000     0.000   0.0% |
 Poisson:                            0.000     0.000   0.0% |
 XC 3D grid:                         2.096     0.150   0.1% |
  VdW-DF integral:                   1.946     0.019   0.0% |
   Convolution:                      0.131     0.131   0.1% |
   FFT:                              0.027     0.027   0.0% |
   gather:                           0.001     0.001   0.0% |
   hmm1:                             0.002     0.002   0.0% |
   hmm2:                             0.079     0.079   0.1% |
   iFFT:                             0.051     0.051   0.0% |
   potential:                        0.104     0.001   0.0% |
    collect:                         0.000     0.000   0.0% |
    p1:                              0.012     0.012   0.0% |
    p2:                              0.091     0.091   0.1% |
    sum:                             0.000     0.000   0.0% |
   splines:                          1.533     1.533   1.4% ||
LCAO initialization:                 3.987     0.051   0.0% |
 LCAO eigensolver:                   1.764     0.001   0.0% |
  Calculate projections:             0.002     0.002   0.0% |
  DenseAtomicCorrection:             0.004     0.004   0.0% |
  Distribute overlap matrix:         0.000     0.000   0.0% |
  Orbital Layouts:                   0.903     0.903   0.8% |
  Potential matrix:                  0.165     0.165   0.2% |
  Sum over cells:                    0.689     0.689   0.6% |
 LCAO to grid:                       2.021     2.021   1.9% ||
 Set positions (LCAO WFS):           0.152     0.025   0.0% |
  Basic WFS set positions:           0.000     0.000   0.0% |
  Basis functions set positions:     0.000     0.000   0.0% |
  P tci:                             0.072     0.072   0.1% |
  ST tci:                            0.050     0.050   0.0% |
  mktci:                             0.004     0.004   0.0% |
PWDescriptor:                        0.011     0.011   0.0% |
SCF-cycle:                         101.210     0.239   0.2% |
 Davidson:                          82.265     8.166   7.6% |--|
  Apply H:                          14.495    14.313  13.3% |----|
   HMM T:                            0.182     0.182   0.2% |
  Subspace diag:                    16.194     0.027   0.0% |
   calc_h_matrix:                   15.054     0.639   0.6% |
    Apply H:                        14.415    14.223  13.2% |----|
     HMM T:                          0.192     0.192   0.2% |
   diagonalize:                      0.168     0.168   0.2% |
   rotate_psi:                       0.945     0.945   0.9% |
  calc. matrices:                   32.517     3.622   3.4% ||
   Apply H:                         28.895    28.525  26.5% |----------|
    HMM T:                           0.370     0.370   0.3% |
  diagonalize:                       9.087     9.087   8.4% |--|
  rotate_psi:                        1.806     1.806   1.7% ||
 Density:                            6.572     0.000   0.0% |
  Atomic density matrices:           0.034     0.034   0.0% |
  Mix:                               1.760     1.760   1.6% ||
  Multipole moments:                 0.002     0.002   0.0% |
  Pseudo density:                    4.776     4.749   4.4% |-|
   Symmetrize density:               0.027     0.027   0.0% |
 Hamiltonian:                       12.009     0.015   0.0% |
  Atomic:                            2.902     0.009   0.0% |
   XC Correction:                    2.894     2.894   2.7% ||
  Calculate atomic Hamiltonians:     0.096     0.096   0.1% |
  Communicate:                       0.000     0.000   0.0% |
  Poisson:                           0.011     0.011   0.0% |
  XC 3D grid:                        8.984     2.163   2.0% ||
   VdW-DF integral:                  6.821     0.307   0.3% |
    Convolution:                     2.216     2.216   2.1% ||
    FFT:                             0.425     0.425   0.4% |
    gather:                          0.008     0.008   0.0% |
    hmm1:                            0.024     0.024   0.0% |
    hmm2:                            1.228     1.228   1.1% |
    iFFT:                            0.867     0.867   0.8% |
    potential:                       1.746     0.014   0.0% |
     collect:                        0.000     0.000   0.0% |
     p1:                             0.236     0.236   0.2% |
     p2:                             1.495     1.495   1.4% ||
     sum:                            0.000     0.000   0.0% |
    splines:                         0.000     0.000   0.0% |
 Orthonormalize:                     0.126     0.001   0.0% |
  calc_s_matrix:                     0.025     0.025   0.0% |
  inverse-cholesky:                  0.003     0.003   0.0% |
  projections:                       0.074     0.074   0.1% |
  rotate_psi_s:                      0.024     0.024   0.0% |
Set symmetry:                        0.003     0.003   0.0% |
Other:                               0.206     0.206   0.2% |
-----------------------------------------------------------
Total:                                       107.695 100.0%

Memory usage: 453.68 MiB
Date: Tue Apr  8 10:41:35 2025
