
  ___ ___ ___ _ _ _  
 |   |   |_  | | | | 
 | | | | | . | | | | 
 |__ |  _|___|_____|  25.1.0
 |___|_|             

User:   georgios-vourvachakis@georgios-vourvachakis-82K2
Date:   Tue Apr  8 10:59:27 2025
Arch:   x86_64
Pid:    24499
CWD:    /home/georgios-vourvachakis/Desktop/DFT_codes
Python: 3.12.3
gpaw:   /home/georgios-vourvachakis/Desktop/DFT_codes/.venv/lib/python3.12/site-packages/gpaw
_gpaw:  /home/georgios-vourvachakis/Desktop/DFT_codes/.venv/lib/python3.12/site-packages/
        _gpaw.cpython-312-x86_64-linux-gnu.so
ase:    /home/georgios-vourvachakis/Desktop/DFT_codes/.venv/lib/python3.12/site-packages/ase (version 3.24.0)
numpy:  /home/georgios-vourvachakis/Desktop/DFT_codes/.venv/lib/python3.12/site-packages/numpy (version 2.2.3)
scipy:  /home/georgios-vourvachakis/Desktop/DFT_codes/.venv/lib/python3.12/site-packages/scipy (version 1.15.1)
libxc:  5.2.3
units:  Angstrom and eV
cores: 1
OpenMP: False
OMP_NUM_THREADS: 1

Input parameters:
  kpts: [6 6 2]
  mode: {ecut: 480.0,
         name: pw}
  xc: optPBE-vdW

System changes: positions, numbers, cell, pbc, initial_charges, initial_magmoms 

Initialize ...

species:
  W:
    name: Tungsten
    id: c5cdf39eb2772a6eef4e39aea6cd5c6f
    Z: 74.0
    valence: 14
    core: 60
    charge: 0.0
    file: /home/georgios-vourvachakis/Desktop/DFT_codes/gpaw_datasets/gpaw-setups-0.9.20000/W.revPBE.gz
    compensation charges: {type: gauss,
                           rc: 0.40,
                           lmax: 2}
    cutoffs: {filter: 2.36,
              core: 3.02}
    projectors:
      #              energy  rcut
      - 5s(2.00)   -78.785   1.344
      - 6s(2.00)    -5.639   1.344
      - 5p(6.00)   -43.193   1.355
      - 6p(0.00)    -1.336   1.355
      - 5d(4.00)    -4.444   1.228
      -  d          22.768   1.228
  
    # Using partial waves for W as LCAO basis

  Te:
    name: Tellurium
    id: cecded85d882fd4df90837008c85fd5a
    Z: 52.0
    valence: 6
    core: 46
    charge: 0.0
    file: /home/georgios-vourvachakis/Desktop/DFT_codes/gpaw_datasets/gpaw-setups-0.9.20000/Te.revPBE.gz
    compensation charges: {type: gauss,
                           rc: 0.36,
                           lmax: 2}
    cutoffs: {filter: 2.09,
              core: 3.17}
    projectors:
      #              energy  rcut
      - 5s(2.00)   -15.027   1.180
      - 5p(4.00)    -5.913   1.196
      -  s          12.185   1.180
      -  p          21.299   1.196
      -  d           0.000   1.238
  
    # Using partial waves for Te as LCAO basis

Reference energy: -1616751.480151  # eV

Spin-paired calculation

Convergence criteria:
 Maximum [total energy] change in last 3 cyles: 0.0005 eV / valence electron
 Maximum integral of absolute [dens]ity change: 0.0001 electrons / valence electron
 Maximum integral of absolute [eigenst]ate change: 4e-08 eV^2 / valence electron
 Maximum number of scf [iter]ations: 333
 (Square brackets indicate name in SCF output, whereas a 'c' in
 the SCF output indicates the quantity has converged.)

Symmetries present (total): 6

  ( 1  1  0)  ( 1  0  0)  ( 0  1  0)  ( 0 -1  0)  (-1  0  0)  (-1 -1  0)
  ( 0 -1  0)  ( 0  1  0)  (-1 -1  0)  (-1  0  0)  ( 1  1  0)  ( 1  0  0)
  ( 0  0  1)  ( 0  0  1)  ( 0  0  1)  ( 0  0  1)  ( 0  0  1)  ( 0  0  1)
Note: your k-points are not as symmetric as your crystal!

72 k-points: 6 x 6 x 2 Monkhorst-Pack grid
21 k-points in the irreducible part of the Brillouin zone
       k-points in crystal coordinates                weights
   0:     0.08333333   -0.08333333   -0.25000000          2/72
   1:     0.08333333   -0.08333333    0.25000000          2/72
   2:     0.08333333    0.08333333    0.25000000          4/72
   3:     0.25000000   -0.25000000   -0.25000000          2/72
   4:     0.25000000   -0.25000000    0.25000000          2/72
   5:     0.25000000   -0.08333333   -0.25000000          4/72
   6:     0.25000000   -0.08333333    0.25000000          4/72
   7:     0.25000000    0.08333333   -0.25000000          4/72
   8:     0.25000000    0.08333333    0.25000000          4/72
   9:     0.25000000    0.25000000    0.25000000          4/72
          ...
  20:     0.41666667    0.41666667    0.25000000          4/72

Wave functions: Plane wave expansion
  Cutoff energy: 480.000 eV
  Number of coefficients (min, max): 3706, 3756
  Pulay-stress correction: 0.000000 eV/Ang^3 (de/decut=0.000000)
  Using Numpy's FFT
  ScaLapack parameters: grid=1x1, blocksize=None
  Wavefunction extrapolation:
    Improved wavefunction reuse through dual PAW basis 

Occupation numbers: Fermi-Dirac:
  width: 0.1000  # eV
 

Eigensolver
   Davidson(niter=2) 

Densities:
  Coarse grid: 20*20*72 grid
  Fine grid: 40*40*144 grid
  Total Charge: 0.000000 

Density mixing:
  Method: separate
  Backend: pulay
  Linear mixing parameter: 0.05
  old densities: 5
  Damping of long wavelength oscillations: 50 

Hamiltonian:
  XC and Coulomb potentials evaluated on a 40*40*144 grid
  Using the optPBE-vdW Exchange-Correlation functional
  External potential:
    NoExternalPotential
 

XC parameters: optPBE-vdW with 2 nearest neighbor stencil

Memory estimate:
  Process memory now: 480.11 MiB
  Calculator: 77.86 MiB
    Density: 12.85 MiB
      Arrays: 5.71 MiB
      Localized functions: 4.94 MiB
      Mixer: 2.20 MiB
    Hamiltonian: 3.85 MiB
      Arrays: 3.74 MiB
      XC: 0.00 MiB
      Poisson: 0.00 MiB
      vbar: 0.12 MiB
    Wavefunctions: 61.15 MiB
      Arrays psit_nG: 43.33 MiB
      Eigensolver: 2.55 MiB
      Projections: 1.02 MiB
      Projectors: 11.96 MiB
      PW-descriptor: 2.30 MiB

Total number of cores used: 1

Number of atoms: 6
Number of atomic orbitals: 42
Number of bands in calculation: 36
Number of valence electrons: 52
Bands to converge: occupied

... initialized

Initializing position-dependent things.

Density initialized from atomic densities
Creating initial wave functions:
  36 bands from LCAO basis set

                  
                  
                  
                  
                  
       Te         
                  
                  
                  
                  
                  
                  
         Te       
                  
                  
                  
       W          
                  
                  
                  
                  
                  
                  
         W        
                  
         Te       
                  
                  
                  
                  
                  
                  
                  
                  
                  
       Te         
                  
                  
                  
                  

Positions:
   0 W      1.785500    1.030859    3.536250    ( 0.0000,  0.0000,  0.0000)
   1 W      1.785500   -1.030859   10.608750    ( 0.0000,  0.0000,  0.0000)
   2 Te     1.785500    1.030859   12.306150    ( 0.0000,  0.0000,  0.0000)
   3 Te     1.785500   -1.030859   -5.233650    ( 0.0000,  0.0000,  0.0000)
   4 Te     1.785500    1.030859    1.838850    ( 0.0000,  0.0000,  0.0000)
   5 Te     1.785500   -1.030859   19.378650    ( 0.0000,  0.0000,  0.0000)

Unit cell:
           periodic     x           y           z      points  spacing
  1. axis:    yes    1.785500   -3.092577    0.000000    20     0.1546
  2. axis:    yes    1.785500    3.092577    0.000000    20     0.1546
  3. axis:    yes    0.000000    0.000000   14.145000    72     0.1965

  Lengths:   3.571000   3.571000  14.145000
  Angles:   90.000000  90.000000 120.000000

Effective grid spacing dv^(1/3) = 0.1757

     iter     time        total  log10-change:
                         energy   eigst   dens
iter:   1 10:59:47   -92.859006
iter:   2 10:59:57   -90.756242   -0.71  -0.95
iter:   3 11:00:02   -89.465229   -1.26  -1.11
iter:   4 11:00:07   -88.743877   -1.47  -1.23
iter:   5 11:00:12   -88.428917   -1.65  -1.41
iter:   6 11:00:16   -88.420978   -2.45  -1.81
iter:   7 11:00:21   -88.415436c  -3.26  -1.88
iter:   8 11:00:26   -88.426787c  -2.68  -1.95
iter:   9 11:00:31   -88.423212c  -3.22  -2.27
iter:  10 11:00:36   -88.424748c  -3.81  -2.57
iter:  11 11:00:41   -88.423174c  -4.21  -2.60
iter:  12 11:00:46   -88.423080c  -4.91  -2.85
iter:  13 11:00:51   -88.422687c  -4.41  -2.92
iter:  14 11:00:56   -88.422734c  -5.45  -3.24
iter:  15 11:01:00   -88.422671c  -5.13  -3.27
iter:  16 11:01:05   -88.422662c  -5.83  -3.54
iter:  17 11:01:12   -88.422678c  -6.36  -3.87
iter:  18 11:01:21   -88.422690c  -7.17  -3.99
iter:  19 11:01:34   -88.422693c  -7.73c -4.11c

Converged after 19 iterations.

Dipole moment: (-0.000000, -0.000000, -0.197388) |e|*Ang

Energy contributions relative to reference atoms: (reference = -1616751.480151)

Kinetic:       +531.982893
Potential:     -450.270475
External:        +0.000000
XC:            -168.136528
Entropy (-ST):   -0.071684
Local:           -1.962740
SIC:             +0.000000
--------------------------
Free energy:    -88.458535
Extrapolated:   -88.422693

Showing only first 2 kpts
 Kpt  Band  Eigenvalues  Occupancy
  0    24      7.28349    1.99999
  0    25      8.39773    1.36232
  0    26      9.60972    0.00002
  0    27      9.73421    0.00001

  1    24      7.28349    1.99999
  1    25      8.39773    1.36232
  1    26      9.60972    0.00002
  1    27      9.73421    0.00001


Fermi level: 8.47364

No gap
No difference between direct/indirect transitions
Timing:                              incl.     excl.
-----------------------------------------------------------
Hamiltonian:                         2.493     0.001   0.0% |
 Atomic:                             0.155     0.000   0.0% |
  XC Correction:                     0.155     0.155   0.1% |
 Calculate atomic Hamiltonians:      0.005     0.005   0.0% |
 Communicate:                        0.000     0.000   0.0% |
 Initialize Hamiltonian:             0.000     0.000   0.0% |
 Poisson:                            0.001     0.001   0.0% |
 XC 3D grid:                         2.330     0.164   0.1% |
  VdW-DF integral:                   2.166     0.116   0.1% |
   Convolution:                      0.145     0.145   0.1% |
   FFT:                              0.031     0.031   0.0% |
   gather:                           0.000     0.000   0.0% |
   hmm1:                             0.002     0.002   0.0% |
   hmm2:                             0.089     0.089   0.1% |
   iFFT:                             0.051     0.051   0.0% |
   potential:                        0.115     0.001   0.0% |
    collect:                         0.000     0.000   0.0% |
    p1:                              0.013     0.013   0.0% |
    p2:                              0.100     0.100   0.1% |
    sum:                             0.000     0.000   0.0% |
   splines:                          1.618     1.618   1.3% ||
LCAO initialization:                 4.074     0.052   0.0% |
 LCAO eigensolver:                   1.890     0.001   0.0% |
  Calculate projections:             0.002     0.002   0.0% |
  DenseAtomicCorrection:             0.005     0.005   0.0% |
  Distribute overlap matrix:         0.001     0.001   0.0% |
  Orbital Layouts:                   0.981     0.981   0.8% |
  Potential matrix:                  0.181     0.181   0.1% |
  Sum over cells:                    0.720     0.720   0.6% |
 LCAO to grid:                       1.978     1.978   1.6% ||
 Set positions (LCAO WFS):           0.154     0.025   0.0% |
  Basic WFS set positions:           0.000     0.000   0.0% |
  Basis functions set positions:     0.000     0.000   0.0% |
  P tci:                             0.072     0.072   0.1% |
  ST tci:                            0.052     0.052   0.0% |
  mktci:                             0.004     0.004   0.0% |
PWDescriptor:                        0.014     0.014   0.0% |
SCF-cycle:                         120.158     0.231   0.2% |
 Davidson:                          99.955     7.462   5.9% |-|
  Apply H:                          14.015    13.835  10.9% |---|
   HMM T:                            0.179     0.179   0.1% |
  Subspace diag:                    15.427     0.029   0.0% |
   calc_h_matrix:                   14.399     0.587   0.5% |
    Apply H:                        13.812    13.629  10.7% |---|
     HMM T:                          0.182     0.182   0.1% |
   diagonalize:                      0.147     0.147   0.1% |
   rotate_psi:                       0.853     0.853   0.7% |
  calc. matrices:                   30.058     3.190   2.5% ||
   Apply H:                         26.868    26.526  20.9% |-------|
    HMM T:                           0.341     0.341   0.3% |
  diagonalize:                      31.211    31.211  24.6% |---------|
  rotate_psi:                        1.782     1.782   1.4% ||
 Density:                            6.783     0.000   0.0% |
  Atomic density matrices:           0.034     0.034   0.0% |
  Mix:                               1.660     1.660   1.3% ||
  Multipole moments:                 0.002     0.002   0.0% |
  Pseudo density:                    5.086     5.055   4.0% |-|
   Symmetrize density:               0.031     0.031   0.0% |
 Hamiltonian:                       13.072     0.014   0.0% |
  Atomic:                            2.764     0.009   0.0% |
   XC Correction:                    2.755     2.755   2.2% ||
  Calculate atomic Hamiltonians:     0.099     0.099   0.1% |
  Communicate:                       0.000     0.000   0.0% |
  Poisson:                           0.009     0.009   0.0% |
  XC 3D grid:                       10.184     2.258   1.8% ||
   VdW-DF integral:                  7.926     0.724   0.6% |
    Convolution:                     2.184     2.184   1.7% ||
    FFT:                             0.527     0.527   0.4% |
    gather:                          0.008     0.008   0.0% |
    hmm1:                            0.025     0.025   0.0% |
    hmm2:                            1.555     1.555   1.2% |
    iFFT:                            0.841     0.841   0.7% |
    potential:                       2.061     0.016   0.0% |
     collect:                        0.000     0.000   0.0% |
     p1:                             0.236     0.236   0.2% |
     p2:                             1.809     1.809   1.4% ||
     sum:                            0.000     0.000   0.0% |
    splines:                         0.000     0.000   0.0% |
 Orthonormalize:                     0.118     0.001   0.0% |
  calc_s_matrix:                     0.016     0.016   0.0% |
  inverse-cholesky:                  0.003     0.003   0.0% |
  projections:                       0.074     0.074   0.1% |
  rotate_psi_s:                      0.023     0.023   0.0% |
Set symmetry:                        0.003     0.003   0.0% |
Other:                               0.243     0.243   0.2% |
-----------------------------------------------------------
Total:                                       126.986 100.0%

Memory usage: 485.64 MiB
Date: Tue Apr  8 11:01:34 2025
