
  ___ ___ ___ _ _ _  
 |   |   |_  | | | | 
 | | | | | . | | | | 
 |__ |  _|___|_____|  25.1.0
 |___|_|             

User:   georgios-vourvachakis@georgios-vourvachakis-82K2
Date:   Tue Apr  8 10:22:00 2025
Arch:   x86_64
Pid:    24499
CWD:    /home/georgios-vourvachakis/Desktop/DFT_codes
Python: 3.12.3
gpaw:   /home/georgios-vourvachakis/Desktop/DFT_codes/.venv/lib/python3.12/site-packages/gpaw
_gpaw:  /home/georgios-vourvachakis/Desktop/DFT_codes/.venv/lib/python3.12/site-packages/
        _gpaw.cpython-312-x86_64-linux-gnu.so
ase:    /home/georgios-vourvachakis/Desktop/DFT_codes/.venv/lib/python3.12/site-packages/ase (version 3.24.0)
numpy:  /home/georgios-vourvachakis/Desktop/DFT_codes/.venv/lib/python3.12/site-packages/numpy (version 2.2.3)
scipy:  /home/georgios-vourvachakis/Desktop/DFT_codes/.venv/lib/python3.12/site-packages/scipy (version 1.15.1)
libxc:  5.2.3
units:  Angstrom and eV
cores: 1
OpenMP: False
OMP_NUM_THREADS: 1

Input parameters:
  kpts: [6 6 2]
  mode: {ecut: 480.0,
         name: pw}
  xc: optPBE-vdW

System changes: positions, numbers, cell, pbc, initial_charges, initial_magmoms 

Initialize ...

species:
  W:
    name: Tungsten
    id: c5cdf39eb2772a6eef4e39aea6cd5c6f
    Z: 74.0
    valence: 14
    core: 60
    charge: 0.0
    file: /home/georgios-vourvachakis/Desktop/DFT_codes/gpaw_datasets/gpaw-setups-0.9.20000/W.revPBE.gz
    compensation charges: {type: gauss,
                           rc: 0.40,
                           lmax: 2}
    cutoffs: {filter: 2.36,
              core: 3.02}
    projectors:
      #              energy  rcut
      - 5s(2.00)   -78.785   1.344
      - 6s(2.00)    -5.639   1.344
      - 5p(6.00)   -43.193   1.355
      - 6p(0.00)    -1.336   1.355
      - 5d(4.00)    -4.444   1.228
      -  d          22.768   1.228
  
    # Using partial waves for W as LCAO basis

  Te:
    name: Tellurium
    id: cecded85d882fd4df90837008c85fd5a
    Z: 52.0
    valence: 6
    core: 46
    charge: 0.0
    file: /home/georgios-vourvachakis/Desktop/DFT_codes/gpaw_datasets/gpaw-setups-0.9.20000/Te.revPBE.gz
    compensation charges: {type: gauss,
                           rc: 0.36,
                           lmax: 2}
    cutoffs: {filter: 2.09,
              core: 3.17}
    projectors:
      #              energy  rcut
      - 5s(2.00)   -15.027   1.180
      - 5p(4.00)    -5.913   1.196
      -  s          12.185   1.180
      -  p          21.299   1.196
      -  d           0.000   1.238
  
    # Using partial waves for Te as LCAO basis

Reference energy: -1616751.480151  # eV

Spin-paired calculation

Convergence criteria:
 Maximum [total energy] change in last 3 cyles: 0.0005 eV / valence electron
 Maximum integral of absolute [dens]ity change: 0.0001 electrons / valence electron
 Maximum integral of absolute [eigenst]ate change: 4e-08 eV^2 / valence electron
 Maximum number of scf [iter]ations: 333
 (Square brackets indicate name in SCF output, whereas a 'c' in
 the SCF output indicates the quantity has converged.)

Symmetries present (total): 6

  ( 1  1  0)  ( 1  0  0)  ( 0  1  0)  ( 0 -1  0)  (-1  0  0)  (-1 -1  0)
  ( 0 -1  0)  ( 0  1  0)  (-1 -1  0)  (-1  0  0)  ( 1  1  0)  ( 1  0  0)
  ( 0  0  1)  ( 0  0  1)  ( 0  0  1)  ( 0  0  1)  ( 0  0  1)  ( 0  0  1)
Note: your k-points are not as symmetric as your crystal!

72 k-points: 6 x 6 x 2 Monkhorst-Pack grid
21 k-points in the irreducible part of the Brillouin zone
       k-points in crystal coordinates                weights
   0:     0.08333333   -0.08333333   -0.25000000          2/72
   1:     0.08333333   -0.08333333    0.25000000          2/72
   2:     0.08333333    0.08333333    0.25000000          4/72
   3:     0.25000000   -0.25000000   -0.25000000          2/72
   4:     0.25000000   -0.25000000    0.25000000          2/72
   5:     0.25000000   -0.08333333   -0.25000000          4/72
   6:     0.25000000   -0.08333333    0.25000000          4/72
   7:     0.25000000    0.08333333   -0.25000000          4/72
   8:     0.25000000    0.08333333    0.25000000          4/72
   9:     0.25000000    0.25000000    0.25000000          4/72
          ...
  20:     0.41666667    0.41666667    0.25000000          4/72

Wave functions: Plane wave expansion
  Cutoff energy: 480.000 eV
  Number of coefficients (min, max): 3542, 3569
  Pulay-stress correction: 0.000000 eV/Ang^3 (de/decut=0.000000)
  Using Numpy's FFT
  ScaLapack parameters: grid=1x1, blocksize=None
  Wavefunction extrapolation:
    Improved wavefunction reuse through dual PAW basis 

Occupation numbers: Fermi-Dirac:
  width: 0.1000  # eV
 

Eigensolver
   Davidson(niter=2) 

Densities:
  Coarse grid: 18*18*72 grid
  Fine grid: 36*36*144 grid
  Total Charge: 0.000000 

Density mixing:
  Method: separate
  Backend: pulay
  Linear mixing parameter: 0.05
  old densities: 5
  Damping of long wavelength oscillations: 50 

Hamiltonian:
  XC and Coulomb potentials evaluated on a 36*36*144 grid
  Using the optPBE-vdW Exchange-Correlation functional
  External potential:
    NoExternalPotential
 

XC parameters: optPBE-vdW with 2 nearest neighbor stencil

Memory estimate:
  Process memory now: 164.20 MiB
  Calculator: 72.33 MiB
    Density: 11.14 MiB
      Arrays: 4.63 MiB
      Localized functions: 4.73 MiB
      Mixer: 1.78 MiB
    Hamiltonian: 3.14 MiB
      Arrays: 3.03 MiB
      XC: 0.00 MiB
      Poisson: 0.00 MiB
      vbar: 0.12 MiB
    Wavefunctions: 58.05 MiB
      Arrays psit_nG: 41.17 MiB
      Eigensolver: 2.43 MiB
      Projections: 1.02 MiB
      Projectors: 11.40 MiB
      PW-descriptor: 2.03 MiB

Total number of cores used: 1

Number of atoms: 6
Number of atomic orbitals: 42
Number of bands in calculation: 36
Number of valence electrons: 52
Bands to converge: occupied

... initialized

Initializing position-dependent things.

Density initialized from atomic densities
Creating initial wave functions:
  36 bands from LCAO basis set

                  
                  
                  
                  
                  
       Te         
                  
                  
                  
                  
                  
                  
         Te       
                  
                  
                  
       W          
                  
                  
                  
                  
                  
                  
         W        
                  
         Te       
                  
                  
                  
                  
                  
                  
                  
                  
                  
       Te         
                  
                  
                  
                  

Positions:
   0 W      1.748000    1.009208    3.517500    ( 0.0000,  0.0000,  0.0000)
   1 W      1.748000   -1.009208   10.552500    ( 0.0000,  0.0000,  0.0000)
   2 Te     1.748000    1.009208   12.240900    ( 0.0000,  0.0000,  0.0000)
   3 Te     1.748000   -1.009208   -5.205900    ( 0.0000,  0.0000,  0.0000)
   4 Te     1.748000    1.009208    1.829100    ( 0.0000,  0.0000,  0.0000)
   5 Te     1.748000   -1.009208   19.275900    ( 0.0000,  0.0000,  0.0000)

Unit cell:
           periodic     x           y           z      points  spacing
  1. axis:    yes    1.748000   -3.027625    0.000000    18     0.1682
  2. axis:    yes    1.748000    3.027625    0.000000    18     0.1682
  3. axis:    yes    0.000000    0.000000   14.070000    72     0.1954

  Lengths:   3.496000   3.496000  14.070000
  Angles:   90.000000  90.000000 120.000000

Effective grid spacing dv^(1/3) = 0.1855

     iter     time        total  log10-change:
                         energy   eigst   dens
iter:   1 10:22:11   -91.280039
iter:   2 10:22:15   -89.075010   -0.72  -0.95
iter:   3 10:22:20   -87.683991   -1.24  -1.11
iter:   4 10:22:25   -86.993786   -1.44  -1.24
iter:   5 10:22:29   -86.656459   -1.67  -1.41
iter:   6 10:22:34   -86.648358   -2.54  -1.82
iter:   7 10:22:39   -86.646577c  -3.56  -1.88
iter:   8 10:22:43   -86.655843c  -2.60  -1.90
iter:   9 10:22:48   -86.652579c  -3.20  -2.24
iter:  10 10:22:53   -86.652767c  -4.24  -2.63
iter:  11 10:22:57   -86.652084c  -4.01  -2.67
iter:  12 10:23:02   -86.651923c  -4.64  -2.94
iter:  13 10:23:07   -86.651966c  -5.10  -3.14
iter:  14 10:23:11   -86.651877c  -5.66  -3.19
iter:  15 10:23:16   -86.651874c  -6.14  -3.32
iter:  16 10:23:21   -86.651923c  -6.44  -3.44
iter:  17 10:23:26   -86.651927c  -7.37  -3.55
iter:  18 10:23:31   -86.651901c  -6.12  -3.59
iter:  19 10:23:35   -86.651923c  -6.94  -4.03c
iter:  20 10:23:39   -86.651924c  -7.49c -4.12c

Converged after 20 iterations.

Dipole moment: (0.000000, -0.000000, -0.177214) |e|*Ang

Energy contributions relative to reference atoms: (reference = -1616751.480151)

Kinetic:       +557.593129
Potential:     -470.721218
External:        +0.000000
XC:            -171.496074
Entropy (-ST):   -0.068296
Local:           -1.993613
SIC:             +0.000000
--------------------------
Free energy:    -86.686072
Extrapolated:   -86.651924

Showing only first 2 kpts
 Kpt  Band  Eigenvalues  Occupancy
  0    24      7.77919    1.99999
  0    25      8.90612    1.65404
  0    26     10.40487    0.00000
  0    27     10.53432    0.00000

  1    24      7.77919    1.99999
  1    25      8.90612    1.65404
  1    26     10.40487    0.00000
  1    27     10.53432    0.00000


Fermi level: 9.06258

No gap
No difference between direct/indirect transitions
Timing:                              incl.     excl.
-----------------------------------------------------------
Hamiltonian:                         2.230     0.001   0.0% |
 Atomic:                             0.149     0.001   0.0% |
  XC Correction:                     0.149     0.149   0.1% |
 Calculate atomic Hamiltonians:      0.005     0.005   0.0% |
 Communicate:                        0.000     0.000   0.0% |
 Initialize Hamiltonian:             0.000     0.000   0.0% |
 Poisson:                            0.001     0.001   0.0% |
 XC 3D grid:                         2.074     0.130   0.1% |
  VdW-DF integral:                   1.943     0.036   0.0% |
   Convolution:                      0.098     0.098   0.1% |
   FFT:                              0.025     0.025   0.0% |
   gather:                           0.000     0.000   0.0% |
   hmm1:                             0.003     0.003   0.0% |
   hmm2:                             0.069     0.069   0.1% |
   iFFT:                             0.064     0.064   0.1% |
   potential:                        0.096     0.001   0.0% |
    collect:                         0.000     0.000   0.0% |
    p1:                              0.013     0.013   0.0% |
    p2:                              0.082     0.082   0.1% |
    sum:                             0.000     0.000   0.0% |
   splines:                          1.553     1.553   1.6% ||
LCAO initialization:                 4.071     0.053   0.1% |
 LCAO eigensolver:                   1.691     0.001   0.0% |
  Calculate projections:             0.002     0.002   0.0% |
  DenseAtomicCorrection:             0.005     0.005   0.0% |
  Distribute overlap matrix:         0.000     0.000   0.0% |
  Orbital Layouts:                   0.825     0.825   0.8% |
  Potential matrix:                  0.181     0.181   0.2% |
  Sum over cells:                    0.677     0.677   0.7% |
 LCAO to grid:                       2.151     2.151   2.2% ||
 Set positions (LCAO WFS):           0.176     0.030   0.0% |
  Basic WFS set positions:           0.000     0.000   0.0% |
  Basis functions set positions:     0.000     0.000   0.0% |
  P tci:                             0.081     0.081   0.1% |
  ST tci:                            0.050     0.050   0.1% |
  mktci:                             0.014     0.014   0.0% |
PWDescriptor:                        0.011     0.011   0.0% |
SCF-cycle:                          92.709     0.216   0.2% |
 Davidson:                          74.840     7.769   7.8% |--|
  Apply H:                          14.615    14.442  14.5% |-----|
   HMM T:                            0.173     0.173   0.2% |
  Subspace diag:                    16.025     0.024   0.0% |
   calc_h_matrix:                   14.947     0.598   0.6% |
    Apply H:                        14.349    14.169  14.3% |-----|
     HMM T:                          0.180     0.180   0.2% |
   diagonalize:                      0.165     0.165   0.2% |
   rotate_psi:                       0.890     0.890   0.9% |
  calc. matrices:                   31.588     2.967   3.0% ||
   Apply H:                         28.621    28.279  28.5% |----------|
    HMM T:                           0.342     0.342   0.3% |
  diagonalize:                       3.261     3.261   3.3% ||
  rotate_psi:                        1.582     1.582   1.6% ||
 Density:                            5.954     0.000   0.0% |
  Atomic density matrices:           0.034     0.034   0.0% |
  Mix:                               1.249     1.249   1.3% ||
  Multipole moments:                 0.002     0.002   0.0% |
  Pseudo density:                    4.668     4.642   4.7% |-|
   Symmetrize density:               0.027     0.027   0.0% |
 Hamiltonian:                       11.563     0.014   0.0% |
  Atomic:                            2.843     0.008   0.0% |
   XC Correction:                    2.834     2.834   2.9% ||
  Calculate atomic Hamiltonians:     0.091     0.091   0.1% |
  Communicate:                       0.000     0.000   0.0% |
  Poisson:                           0.011     0.011   0.0% |
  XC 3D grid:                        8.604     2.290   2.3% ||
   VdW-DF integral:                  6.314     0.290   0.3% |
    Convolution:                     2.020     2.020   2.0% ||
    FFT:                             0.393     0.393   0.4% |
    gather:                          0.007     0.007   0.0% |
    hmm1:                            0.020     0.020   0.0% |
    hmm2:                            1.109     1.109   1.1% |
    iFFT:                            0.857     0.857   0.9% |
    potential:                       1.617     0.013   0.0% |
     collect:                        0.000     0.000   0.0% |
     p1:                             0.241     0.241   0.2% |
     p2:                             1.363     1.363   1.4% ||
     sum:                            0.000     0.000   0.0% |
    splines:                         0.000     0.000   0.0% |
 Orthonormalize:                     0.137     0.001   0.0% |
  calc_s_matrix:                     0.029     0.029   0.0% |
  inverse-cholesky:                  0.004     0.004   0.0% |
  projections:                       0.078     0.078   0.1% |
  rotate_psi_s:                      0.024     0.024   0.0% |
Set symmetry:                        0.003     0.003   0.0% |
Other:                               0.277     0.277   0.3% |
-----------------------------------------------------------
Total:                                        99.301 100.0%

Memory usage: 413.05 MiB
Date: Tue Apr  8 10:23:39 2025
