
  ___ ___ ___ _ _ _  
 |   |   |_  | | | | 
 | | | | | . | | | | 
 |__ |  _|___|_____|  25.1.0
 |___|_|             

User:   georgios-vourvachakis@georgios-vourvachakis-82K2
Date:   Tue Apr  8 10:49:35 2025
Arch:   x86_64
Pid:    24499
CWD:    /home/georgios-vourvachakis/Desktop/DFT_codes
Python: 3.12.3
gpaw:   /home/georgios-vourvachakis/Desktop/DFT_codes/.venv/lib/python3.12/site-packages/gpaw
_gpaw:  /home/georgios-vourvachakis/Desktop/DFT_codes/.venv/lib/python3.12/site-packages/
        _gpaw.cpython-312-x86_64-linux-gnu.so
ase:    /home/georgios-vourvachakis/Desktop/DFT_codes/.venv/lib/python3.12/site-packages/ase (version 3.24.0)
numpy:  /home/georgios-vourvachakis/Desktop/DFT_codes/.venv/lib/python3.12/site-packages/numpy (version 2.2.3)
scipy:  /home/georgios-vourvachakis/Desktop/DFT_codes/.venv/lib/python3.12/site-packages/scipy (version 1.15.1)
libxc:  5.2.3
units:  Angstrom and eV
cores: 1
OpenMP: False
OMP_NUM_THREADS: 1

Input parameters:
  kpts: [6 6 2]
  mode: {ecut: 480.0,
         name: pw}
  xc: optPBE-vdW

System changes: positions, numbers, cell, pbc, initial_charges, initial_magmoms 

Initialize ...

species:
  W:
    name: Tungsten
    id: c5cdf39eb2772a6eef4e39aea6cd5c6f
    Z: 74.0
    valence: 14
    core: 60
    charge: 0.0
    file: /home/georgios-vourvachakis/Desktop/DFT_codes/gpaw_datasets/gpaw-setups-0.9.20000/W.revPBE.gz
    compensation charges: {type: gauss,
                           rc: 0.40,
                           lmax: 2}
    cutoffs: {filter: 2.36,
              core: 3.02}
    projectors:
      #              energy  rcut
      - 5s(2.00)   -78.785   1.344
      - 6s(2.00)    -5.639   1.344
      - 5p(6.00)   -43.193   1.355
      - 6p(0.00)    -1.336   1.355
      - 5d(4.00)    -4.444   1.228
      -  d          22.768   1.228
  
    # Using partial waves for W as LCAO basis

  Te:
    name: Tellurium
    id: cecded85d882fd4df90837008c85fd5a
    Z: 52.0
    valence: 6
    core: 46
    charge: 0.0
    file: /home/georgios-vourvachakis/Desktop/DFT_codes/gpaw_datasets/gpaw-setups-0.9.20000/Te.revPBE.gz
    compensation charges: {type: gauss,
                           rc: 0.36,
                           lmax: 2}
    cutoffs: {filter: 2.09,
              core: 3.17}
    projectors:
      #              energy  rcut
      - 5s(2.00)   -15.027   1.180
      - 5p(4.00)    -5.913   1.196
      -  s          12.185   1.180
      -  p          21.299   1.196
      -  d           0.000   1.238
  
    # Using partial waves for Te as LCAO basis

Reference energy: -1616751.480151  # eV

Spin-paired calculation

Convergence criteria:
 Maximum [total energy] change in last 3 cyles: 0.0005 eV / valence electron
 Maximum integral of absolute [dens]ity change: 0.0001 electrons / valence electron
 Maximum integral of absolute [eigenst]ate change: 4e-08 eV^2 / valence electron
 Maximum number of scf [iter]ations: 333
 (Square brackets indicate name in SCF output, whereas a 'c' in
 the SCF output indicates the quantity has converged.)

Symmetries present (total): 6

  ( 1  1  0)  ( 1  0  0)  ( 0  1  0)  ( 0 -1  0)  (-1  0  0)  (-1 -1  0)
  ( 0 -1  0)  ( 0  1  0)  (-1 -1  0)  (-1  0  0)  ( 1  1  0)  ( 1  0  0)
  ( 0  0  1)  ( 0  0  1)  ( 0  0  1)  ( 0  0  1)  ( 0  0  1)  ( 0  0  1)
Note: your k-points are not as symmetric as your crystal!

72 k-points: 6 x 6 x 2 Monkhorst-Pack grid
21 k-points in the irreducible part of the Brillouin zone
       k-points in crystal coordinates                weights
   0:     0.08333333   -0.08333333   -0.25000000          2/72
   1:     0.08333333   -0.08333333    0.25000000          2/72
   2:     0.08333333    0.08333333    0.25000000          4/72
   3:     0.25000000   -0.25000000   -0.25000000          2/72
   4:     0.25000000   -0.25000000    0.25000000          2/72
   5:     0.25000000   -0.08333333   -0.25000000          4/72
   6:     0.25000000   -0.08333333    0.25000000          4/72
   7:     0.25000000    0.08333333   -0.25000000          4/72
   8:     0.25000000    0.08333333    0.25000000          4/72
   9:     0.25000000    0.25000000    0.25000000          4/72
          ...
  20:     0.41666667    0.41666667    0.25000000          4/72

Wave functions: Plane wave expansion
  Cutoff energy: 480.000 eV
  Number of coefficients (min, max): 3689, 3730
  Pulay-stress correction: 0.000000 eV/Ang^3 (de/decut=0.000000)
  Using Numpy's FFT
  ScaLapack parameters: grid=1x1, blocksize=None
  Wavefunction extrapolation:
    Improved wavefunction reuse through dual PAW basis 

Occupation numbers: Fermi-Dirac:
  width: 0.1000  # eV
 

Eigensolver
   Davidson(niter=2) 

Densities:
  Coarse grid: 20*20*72 grid
  Fine grid: 40*40*144 grid
  Total Charge: 0.000000 

Density mixing:
  Method: separate
  Backend: pulay
  Linear mixing parameter: 0.05
  old densities: 5
  Damping of long wavelength oscillations: 50 

Hamiltonian:
  XC and Coulomb potentials evaluated on a 40*40*144 grid
  Using the optPBE-vdW Exchange-Correlation functional
  External potential:
    NoExternalPotential
 

XC parameters: optPBE-vdW with 2 nearest neighbor stencil

Memory estimate:
  Process memory now: 453.68 MiB
  Calculator: 77.44 MiB
    Density: 12.82 MiB
      Arrays: 5.71 MiB
      Localized functions: 4.91 MiB
      Mixer: 2.20 MiB
    Hamiltonian: 3.85 MiB
      Arrays: 3.74 MiB
      XC: 0.00 MiB
      Poisson: 0.00 MiB
      vbar: 0.12 MiB
    Wavefunctions: 60.77 MiB
      Arrays psit_nG: 43.03 MiB
      Eigensolver: 2.53 MiB
      Projections: 1.02 MiB
      Projectors: 11.90 MiB
      PW-descriptor: 2.29 MiB

Total number of cores used: 1

Number of atoms: 6
Number of atomic orbitals: 42
Number of bands in calculation: 36
Number of valence electrons: 52
Bands to converge: occupied

... initialized

Initializing position-dependent things.

Density initialized from atomic densities
Creating initial wave functions:
  36 bands from LCAO basis set

                  
                  
                  
                  
                  
       Te         
                  
                  
                  
                  
                  
                  
         Te       
                  
                  
                  
       W          
                  
                  
                  
                  
                  
                  
         W        
                  
         Te       
                  
                  
                  
                  
                  
                  
                  
                  
                  
       Te         
                  
                  
                  
                  

Positions:
   0 W      1.785500    1.030859    3.517500    ( 0.0000,  0.0000,  0.0000)
   1 W      1.785500   -1.030859   10.552500    ( 0.0000,  0.0000,  0.0000)
   2 Te     1.785500    1.030859   12.240900    ( 0.0000,  0.0000,  0.0000)
   3 Te     1.785500   -1.030859   -5.205900    ( 0.0000,  0.0000,  0.0000)
   4 Te     1.785500    1.030859    1.829100    ( 0.0000,  0.0000,  0.0000)
   5 Te     1.785500   -1.030859   19.275900    ( 0.0000,  0.0000,  0.0000)

Unit cell:
           periodic     x           y           z      points  spacing
  1. axis:    yes    1.785500   -3.092577    0.000000    20     0.1546
  2. axis:    yes    1.785500    3.092577    0.000000    20     0.1546
  3. axis:    yes    0.000000    0.000000   14.070000    72     0.1954

  Lengths:   3.571000   3.571000  14.070000
  Angles:   90.000000  90.000000 120.000000

Effective grid spacing dv^(1/3) = 0.1754

     iter     time        total  log10-change:
                         energy   eigst   dens
iter:   1 10:49:46   -91.573437
iter:   2 10:49:51   -89.359941   -0.70  -0.94
iter:   3 10:49:56   -88.012609   -1.24  -1.11
iter:   4 10:50:02   -87.285177   -1.47  -1.23
iter:   5 10:50:07   -86.964999   -1.64  -1.41
iter:   6 10:50:12   -86.957621   -2.43  -1.81
iter:   7 10:50:18   -86.950873c  -3.22  -1.88
iter:   8 10:50:25   -86.962303c  -2.71  -1.96
iter:   9 10:50:30   -86.959647c  -3.19  -2.27
iter:  10 10:50:35   -86.961132c  -3.83  -2.57
iter:  11 10:50:41   -86.959496c  -4.15  -2.60
iter:  12 10:50:46   -86.959410c  -4.83  -2.84
iter:  13 10:50:51   -86.958962c  -4.43  -2.91
iter:  14 10:50:56   -86.959009c  -5.49  -3.21
iter:  15 10:51:01   -86.958920c  -5.14  -3.23
iter:  16 10:51:07   -86.958920c  -5.86  -3.54
iter:  17 10:51:12   -86.958990c  -5.82  -3.78
iter:  18 10:51:17   -86.958977c  -7.08  -4.02c
iter:  19 10:51:22   -86.958969c  -7.70c -4.17c

Converged after 19 iterations.

Dipole moment: (0.000000, -0.000000, -0.205432) |e|*Ang

Energy contributions relative to reference atoms: (reference = -1616751.480151)

Kinetic:       +544.470152
Potential:     -460.245057
External:        +0.000000
XC:            -169.181446
Entropy (-ST):   -0.076208
Local:           -1.964513
SIC:             +0.000000
--------------------------
Free energy:    -86.997073
Extrapolated:   -86.958969

Showing only first 2 kpts
 Kpt  Band  Eigenvalues  Occupancy
  0    24      7.38626    1.99998
  0    25      8.52046    1.19774
  0    26      9.67534    0.00003
  0    27      9.80550    0.00001

  1    24      7.38626    1.99998
  1    25      8.52046    1.19774
  1    26      9.67534    0.00003
  1    27      9.80550    0.00001


Fermi level: 8.56054

No gap
No difference between direct/indirect transitions
Timing:                              incl.     excl.
-----------------------------------------------------------
Hamiltonian:                         2.355     0.001   0.0% |
 Atomic:                             0.149     0.000   0.0% |
  XC Correction:                     0.149     0.149   0.1% |
 Calculate atomic Hamiltonians:      0.005     0.005   0.0% |
 Communicate:                        0.000     0.000   0.0% |
 Initialize Hamiltonian:             0.000     0.000   0.0% |
 Poisson:                            0.000     0.000   0.0% |
 XC 3D grid:                         2.200     0.148   0.1% |
  VdW-DF integral:                   2.052     0.016   0.0% |
   Convolution:                      0.161     0.161   0.2% |
   FFT:                              0.034     0.034   0.0% |
   gather:                           0.001     0.001   0.0% |
   hmm1:                             0.002     0.002   0.0% |
   hmm2:                             0.092     0.092   0.1% |
   iFFT:                             0.061     0.061   0.1% |
   potential:                        0.132     0.001   0.0% |
    collect:                         0.000     0.000   0.0% |
    p1:                              0.015     0.015   0.0% |
    p2:                              0.116     0.116   0.1% |
    sum:                             0.000     0.000   0.0% |
   splines:                          1.553     1.553   1.5% ||
LCAO initialization:                 4.313     0.051   0.0% |
 LCAO eigensolver:                   1.730     0.001   0.0% |
  Calculate projections:             0.002     0.002   0.0% |
  DenseAtomicCorrection:             0.005     0.005   0.0% |
  Distribute overlap matrix:         0.001     0.001   0.0% |
  Orbital Layouts:                   0.844     0.844   0.8% |
  Potential matrix:                  0.177     0.177   0.2% |
  Sum over cells:                    0.701     0.701   0.7% |
 LCAO to grid:                       2.382     2.382   2.2% ||
 Set positions (LCAO WFS):           0.150     0.024   0.0% |
  Basic WFS set positions:           0.000     0.000   0.0% |
  Basis functions set positions:     0.000     0.000   0.0% |
  P tci:                             0.070     0.070   0.1% |
  ST tci:                            0.050     0.050   0.0% |
  mktci:                             0.004     0.004   0.0% |
PWDescriptor:                        0.013     0.013   0.0% |
SCF-cycle:                          99.846     0.199   0.2% |
 Davidson:                          79.429     7.827   7.3% |--|
  Apply H:                          15.140    14.953  14.0% |-----|
   HMM T:                            0.186     0.186   0.2% |
  Subspace diag:                    16.742     0.030   0.0% |
   calc_h_matrix:                   15.674     0.597   0.6% |
    Apply H:                        15.077    14.881  13.9% |-----|
     HMM T:                          0.196     0.196   0.2% |
   diagonalize:                      0.160     0.160   0.1% |
   rotate_psi:                       0.878     0.878   0.8% |
  calc. matrices:                   32.597     3.250   3.0% ||
   Apply H:                         29.347    28.965  27.1% |----------|
    HMM T:                           0.382     0.382   0.4% |
  diagonalize:                       5.504     5.504   5.2% |-|
  rotate_psi:                        1.619     1.619   1.5% ||
 Density:                            6.830     0.000   0.0% |
  Atomic density matrices:           0.034     0.034   0.0% |
  Mix:                               1.709     1.709   1.6% ||
  Multipole moments:                 0.002     0.002   0.0% |
  Pseudo density:                    5.084     5.053   4.7% |-|
   Symmetrize density:               0.031     0.031   0.0% |
 Hamiltonian:                       13.266     0.015   0.0% |
  Atomic:                            2.719     0.008   0.0% |
   XC Correction:                    2.711     2.711   2.5% ||
  Calculate atomic Hamiltonians:     0.094     0.094   0.1% |
  Communicate:                       0.000     0.000   0.0% |
  Poisson:                           0.010     0.010   0.0% |
  XC 3D grid:                       10.428     2.446   2.3% ||
   VdW-DF integral:                  7.982     0.431   0.4% |
    Convolution:                     2.646     2.646   2.5% ||
    FFT:                             0.479     0.479   0.4% |
    gather:                          0.008     0.008   0.0% |
    hmm1:                            0.023     0.023   0.0% |
    hmm2:                            1.379     1.379   1.3% ||
    iFFT:                            0.964     0.964   0.9% |
    potential:                       2.052     0.017   0.0% |
     collect:                        0.000     0.000   0.0% |
     p1:                             0.275     0.275   0.3% |
     p2:                             1.760     1.760   1.6% ||
     sum:                            0.000     0.000   0.0% |
    splines:                         0.000     0.000   0.0% |
 Orthonormalize:                     0.124     0.002   0.0% |
  calc_s_matrix:                     0.018     0.018   0.0% |
  inverse-cholesky:                  0.003     0.003   0.0% |
  projections:                       0.078     0.078   0.1% |
  rotate_psi_s:                      0.023     0.023   0.0% |
Set symmetry:                        0.002     0.002   0.0% |
Other:                               0.253     0.253   0.2% |
-----------------------------------------------------------
Total:                                       106.782 100.0%

Memory usage: 477.34 MiB
Date: Tue Apr  8 10:51:22 2025
