
  ___ ___ ___ _ _ _  
 |   |   |_  | | | | 
 | | | | | . | | | | 
 |__ |  _|___|_____|  25.1.0
 |___|_|             

User:   georgios-vourvachakis@georgios-vourvachakis-82K2
Date:   Tue Apr  8 10:41:35 2025
Arch:   x86_64
Pid:    24499
CWD:    /home/georgios-vourvachakis/Desktop/DFT_codes
Python: 3.12.3
gpaw:   /home/georgios-vourvachakis/Desktop/DFT_codes/.venv/lib/python3.12/site-packages/gpaw
_gpaw:  /home/georgios-vourvachakis/Desktop/DFT_codes/.venv/lib/python3.12/site-packages/
        _gpaw.cpython-312-x86_64-linux-gnu.so
ase:    /home/georgios-vourvachakis/Desktop/DFT_codes/.venv/lib/python3.12/site-packages/ase (version 3.24.0)
numpy:  /home/georgios-vourvachakis/Desktop/DFT_codes/.venv/lib/python3.12/site-packages/numpy (version 2.2.3)
scipy:  /home/georgios-vourvachakis/Desktop/DFT_codes/.venv/lib/python3.12/site-packages/scipy (version 1.15.1)
libxc:  5.2.3
units:  Angstrom and eV
cores: 1
OpenMP: False
OMP_NUM_THREADS: 1

Input parameters:
  kpts: [6 6 2]
  mode: {ecut: 480.0,
         name: pw}
  xc: optPBE-vdW

System changes: positions, numbers, cell, pbc, initial_charges, initial_magmoms 

Initialize ...

species:
  W:
    name: Tungsten
    id: c5cdf39eb2772a6eef4e39aea6cd5c6f
    Z: 74.0
    valence: 14
    core: 60
    charge: 0.0
    file: /home/georgios-vourvachakis/Desktop/DFT_codes/gpaw_datasets/gpaw-setups-0.9.20000/W.revPBE.gz
    compensation charges: {type: gauss,
                           rc: 0.40,
                           lmax: 2}
    cutoffs: {filter: 2.36,
              core: 3.02}
    projectors:
      #              energy  rcut
      - 5s(2.00)   -78.785   1.344
      - 6s(2.00)    -5.639   1.344
      - 5p(6.00)   -43.193   1.355
      - 6p(0.00)    -1.336   1.355
      - 5d(4.00)    -4.444   1.228
      -  d          22.768   1.228
  
    # Using partial waves for W as LCAO basis

  Te:
    name: Tellurium
    id: cecded85d882fd4df90837008c85fd5a
    Z: 52.0
    valence: 6
    core: 46
    charge: 0.0
    file: /home/georgios-vourvachakis/Desktop/DFT_codes/gpaw_datasets/gpaw-setups-0.9.20000/Te.revPBE.gz
    compensation charges: {type: gauss,
                           rc: 0.36,
                           lmax: 2}
    cutoffs: {filter: 2.09,
              core: 3.17}
    projectors:
      #              energy  rcut
      - 5s(2.00)   -15.027   1.180
      - 5p(4.00)    -5.913   1.196
      -  s          12.185   1.180
      -  p          21.299   1.196
      -  d           0.000   1.238
  
    # Using partial waves for Te as LCAO basis

Reference energy: -1616751.480151  # eV

Spin-paired calculation

Convergence criteria:
 Maximum [total energy] change in last 3 cyles: 0.0005 eV / valence electron
 Maximum integral of absolute [dens]ity change: 0.0001 electrons / valence electron
 Maximum integral of absolute [eigenst]ate change: 4e-08 eV^2 / valence electron
 Maximum number of scf [iter]ations: 333
 (Square brackets indicate name in SCF output, whereas a 'c' in
 the SCF output indicates the quantity has converged.)

Symmetries present (total): 6

  ( 1  1  0)  ( 1  0  0)  ( 0  1  0)  ( 0 -1  0)  (-1  0  0)  (-1 -1  0)
  ( 0 -1  0)  ( 0  1  0)  (-1 -1  0)  (-1  0  0)  ( 1  1  0)  ( 1  0  0)
  ( 0  0  1)  ( 0  0  1)  ( 0  0  1)  ( 0  0  1)  ( 0  0  1)  ( 0  0  1)
Note: your k-points are not as symmetric as your crystal!

72 k-points: 6 x 6 x 2 Monkhorst-Pack grid
21 k-points in the irreducible part of the Brillouin zone
       k-points in crystal coordinates                weights
   0:     0.08333333   -0.08333333   -0.25000000          2/72
   1:     0.08333333   -0.08333333    0.25000000          2/72
   2:     0.08333333    0.08333333    0.25000000          4/72
   3:     0.25000000   -0.25000000   -0.25000000          2/72
   4:     0.25000000   -0.25000000    0.25000000          2/72
   5:     0.25000000   -0.08333333   -0.25000000          4/72
   6:     0.25000000   -0.08333333    0.25000000          4/72
   7:     0.25000000    0.08333333   -0.25000000          4/72
   8:     0.25000000    0.08333333    0.25000000          4/72
   9:     0.25000000    0.25000000    0.25000000          4/72
          ...
  20:     0.41666667    0.41666667    0.25000000          4/72

Wave functions: Plane wave expansion
  Cutoff energy: 480.000 eV
  Number of coefficients (min, max): 3647, 3695
  Pulay-stress correction: 0.000000 eV/Ang^3 (de/decut=0.000000)
  Using Numpy's FFT
  ScaLapack parameters: grid=1x1, blocksize=None
  Wavefunction extrapolation:
    Improved wavefunction reuse through dual PAW basis 

Occupation numbers: Fermi-Dirac:
  width: 0.1000  # eV
 

Eigensolver
   Davidson(niter=2) 

Densities:
  Coarse grid: 18*18*72 grid
  Fine grid: 36*36*144 grid
  Total Charge: 0.000000 

Density mixing:
  Method: separate
  Backend: pulay
  Linear mixing parameter: 0.05
  old densities: 5
  Damping of long wavelength oscillations: 50 

Hamiltonian:
  XC and Coulomb potentials evaluated on a 36*36*144 grid
  Using the optPBE-vdW Exchange-Correlation functional
  External potential:
    NoExternalPotential
 

XC parameters: optPBE-vdW with 2 nearest neighbor stencil

Memory estimate:
  Process memory now: 453.68 MiB
  Calculator: 74.41 MiB
    Density: 11.27 MiB
      Arrays: 4.63 MiB
      Localized functions: 4.87 MiB
      Mixer: 1.78 MiB
    Hamiltonian: 3.14 MiB
      Arrays: 3.03 MiB
      XC: 0.00 MiB
      Poisson: 0.00 MiB
      vbar: 0.12 MiB
    Wavefunctions: 59.99 MiB
      Arrays psit_nG: 42.62 MiB
      Eigensolver: 2.51 MiB
      Projections: 1.02 MiB
      Projectors: 11.77 MiB
      PW-descriptor: 2.07 MiB

Total number of cores used: 1

Number of atoms: 6
Number of atomic orbitals: 42
Number of bands in calculation: 36
Number of valence electrons: 52
Bands to converge: occupied

... initialized

Initializing position-dependent things.

Density initialized from atomic densities
Creating initial wave functions:
  36 bands from LCAO basis set

                  
                  
                  
                  
                  
       Te         
                  
                  
                  
                  
                  
                  
         Te       
                  
                  
                  
       W          
                  
                  
                  
                  
                  
                  
         W        
                  
         Te       
                  
                  
                  
                  
                  
                  
                  
                  
                  
       Te         
                  
                  
                  
                  

Positions:
   0 W      1.773000    1.023642    3.530000    ( 0.0000,  0.0000,  0.0000)
   1 W      1.773000   -1.023642   10.590000    ( 0.0000,  0.0000,  0.0000)
   2 Te     1.773000    1.023642   12.284400    ( 0.0000,  0.0000,  0.0000)
   3 Te     1.773000   -1.023642   -5.224400    ( 0.0000,  0.0000,  0.0000)
   4 Te     1.773000    1.023642    1.835600    ( 0.0000,  0.0000,  0.0000)
   5 Te     1.773000   -1.023642   19.344400    ( 0.0000,  0.0000,  0.0000)

Unit cell:
           periodic     x           y           z      points  spacing
  1. axis:    yes    1.773000   -3.070926    0.000000    18     0.1706
  2. axis:    yes    1.773000    3.070926    0.000000    18     0.1706
  3. axis:    yes    0.000000    0.000000   14.120000    72     0.1961

  Lengths:   3.546000   3.546000  14.120000
  Angles:   90.000000  90.000000 120.000000

Effective grid spacing dv^(1/3) = 0.1875

     iter     time        total  log10-change:
                         energy   eigst   dens
iter:   1 10:41:45   -92.352719
iter:   2 10:41:50   -90.216169   -0.72  -0.95
iter:   3 10:41:54   -88.893685   -1.25  -1.11
iter:   4 10:41:59   -88.181984   -1.46  -1.23
iter:   5 10:42:04   -87.860018   -1.66  -1.41
iter:   6 10:42:10   -87.851679   -2.49  -1.81
iter:   7 10:42:19   -87.847392c  -3.38  -1.88
iter:   8 10:42:30   -87.858437c  -2.65  -1.93
iter:   9 10:42:38   -87.854585c  -3.25  -2.26
iter:  10 10:42:46   -87.856055c  -3.79  -2.57
iter:  11 10:42:53   -87.854534c  -4.05  -2.62
iter:  12 10:43:01   -87.854437c  -4.94  -2.96
iter:  13 10:43:14   -87.854248c  -4.86  -3.04
iter:  14 10:43:22   -87.854251c  -5.66  -3.21
iter:  15 10:43:28   -87.854267c  -5.49  -3.25
iter:  16 10:43:33   -87.854301c  -6.09  -3.52
iter:  17 10:43:38   -87.854322c  -6.43  -3.64
iter:  18 10:43:43   -87.854318c  -6.95  -3.82
iter:  19 10:43:48   -87.854281c  -6.86  -4.02c
iter:  20 10:43:53   -87.854275c  -7.61c -4.29c

Converged after 20 iterations.

Dipole moment: (-0.000000, -0.000000, -0.190468) |e|*Ang

Energy contributions relative to reference atoms: (reference = -1616751.480151)

Kinetic:       +540.191374
Potential:     -456.818669
External:        +0.000000
XC:            -169.221612
Entropy (-ST):   -0.070269
Local:           -1.970233
SIC:             +0.000000
--------------------------
Free energy:    -87.889410
Extrapolated:   -87.854275

Showing only first 2 kpts
 Kpt  Band  Eigenvalues  Occupancy
  0    24      7.44510    1.99999
  0    25      8.56453    1.46919
  0    26      9.86757    0.00001
  0    27      9.99362    0.00000

  1    24      7.44510    1.99999
  1    25      8.56453    1.46919
  1    26      9.86757    0.00001
  1    27      9.99362    0.00000


Fermi level: 8.66633

No gap
No difference between direct/indirect transitions
Timing:                              incl.     excl.
-----------------------------------------------------------
Hamiltonian:                         2.230     0.001   0.0% |
 Atomic:                             0.151     0.001   0.0% |
  XC Correction:                     0.151     0.151   0.1% |
 Calculate atomic Hamiltonians:      0.006     0.006   0.0% |
 Communicate:                        0.000     0.000   0.0% |
 Initialize Hamiltonian:             0.000     0.000   0.0% |
 Poisson:                            0.000     0.000   0.0% |
 XC 3D grid:                         2.072     0.136   0.1% |
  VdW-DF integral:                   1.936     0.028   0.0% |
   Convolution:                      0.092     0.092   0.1% |
   FFT:                              0.028     0.028   0.0% |
   gather:                           0.001     0.001   0.0% |
   hmm1:                             0.002     0.002   0.0% |
   hmm2:                             0.074     0.074   0.1% |
   iFFT:                             0.059     0.059   0.0% |
   potential:                        0.105     0.001   0.0% |
    collect:                         0.000     0.000   0.0% |
    p1:                              0.012     0.012   0.0% |
    p2:                              0.091     0.091   0.1% |
    sum:                             0.000     0.000   0.0% |
   splines:                          1.548     1.548   1.1% |
LCAO initialization:                 3.670     0.052   0.0% |
 LCAO eigensolver:                   1.502     0.001   0.0% |
  Calculate projections:             0.006     0.006   0.0% |
  DenseAtomicCorrection:             0.005     0.005   0.0% |
  Distribute overlap matrix:         0.001     0.001   0.0% |
  Orbital Layouts:                   0.726     0.726   0.5% |
  Potential matrix:                  0.144     0.144   0.1% |
  Sum over cells:                    0.618     0.618   0.5% |
 LCAO to grid:                       1.962     1.962   1.4% ||
 Set positions (LCAO WFS):           0.155     0.026   0.0% |
  Basic WFS set positions:           0.000     0.000   0.0% |
  Basis functions set positions:     0.000     0.000   0.0% |
  P tci:                             0.073     0.073   0.1% |
  ST tci:                            0.051     0.051   0.0% |
  mktci:                             0.004     0.004   0.0% |
PWDescriptor:                        0.011     0.011   0.0% |
SCF-cycle:                         131.100     0.228   0.2% |
 Davidson:                         110.309     8.233   6.0% |-|
  Apply H:                          14.761    14.572  10.6% |---|
   HMM T:                            0.189     0.189   0.1% |
  Subspace diag:                    16.735     0.031   0.0% |
   calc_h_matrix:                   15.574     0.658   0.5% |
    Apply H:                        14.915    14.711  10.7% |---|
     HMM T:                          0.205     0.205   0.1% |
   diagonalize:                      0.173     0.173   0.1% |
   rotate_psi:                       0.958     0.958   0.7% |
  calc. matrices:                   32.451     3.646   2.7% ||
   Apply H:                         28.806    28.417  20.7% |-------|
    HMM T:                           0.389     0.389   0.3% |
  diagonalize:                      36.270    36.270  26.4% |----------|
  rotate_psi:                        1.859     1.859   1.4% ||
 Density:                            7.475     0.000   0.0% |
  Atomic density matrices:           0.037     0.037   0.0% |
  Mix:                               2.457     2.457   1.8% ||
  Multipole moments:                 0.002     0.002   0.0% |
  Pseudo density:                    4.979     4.952   3.6% ||
   Symmetrize density:               0.027     0.027   0.0% |
 Hamiltonian:                       12.974     0.015   0.0% |
  Atomic:                            2.933     0.009   0.0% |
   XC Correction:                    2.924     2.924   2.1% ||
  Calculate atomic Hamiltonians:     0.110     0.110   0.1% |
  Communicate:                       0.000     0.000   0.0% |
  Poisson:                           0.011     0.011   0.0% |
  XC 3D grid:                        9.904     2.371   1.7% ||
   VdW-DF integral:                  7.534     0.964   0.7% |
    Convolution:                     1.991     1.991   1.5% ||
    FFT:                             0.452     0.452   0.3% |
    gather:                          0.008     0.008   0.0% |
    hmm1:                            0.024     0.024   0.0% |
    hmm2:                            1.236     1.236   0.9% |
    iFFT:                            0.944     0.944   0.7% |
    potential:                       1.916     0.015   0.0% |
     collect:                        0.000     0.000   0.0% |
     p1:                             0.244     0.244   0.2% |
     p2:                             1.657     1.657   1.2% |
     sum:                            0.000     0.000   0.0% |
    splines:                         0.000     0.000   0.0% |
 Orthonormalize:                     0.114     0.001   0.0% |
  calc_s_matrix:                     0.016     0.016   0.0% |
  inverse-cholesky:                  0.002     0.002   0.0% |
  projections:                       0.072     0.072   0.1% |
  rotate_psi_s:                      0.022     0.022   0.0% |
Set symmetry:                        0.002     0.002   0.0% |
Other:                               0.214     0.214   0.2% |
-----------------------------------------------------------
Total:                                       137.227 100.0%

Memory usage: 453.68 MiB
Date: Tue Apr  8 10:43:53 2025
