
  ___ ___ ___ _ _ _  
 |   |   |_  | | | | 
 | | | | | . | | | | 
 |__ |  _|___|_____|  25.1.0
 |___|_|             

User:   georgios-vourvachakis@georgios-vourvachakis-82K2
Date:   Tue Apr  8 10:23:39 2025
Arch:   x86_64
Pid:    24499
CWD:    /home/georgios-vourvachakis/Desktop/DFT_codes
Python: 3.12.3
gpaw:   /home/georgios-vourvachakis/Desktop/DFT_codes/.venv/lib/python3.12/site-packages/gpaw
_gpaw:  /home/georgios-vourvachakis/Desktop/DFT_codes/.venv/lib/python3.12/site-packages/
        _gpaw.cpython-312-x86_64-linux-gnu.so
ase:    /home/georgios-vourvachakis/Desktop/DFT_codes/.venv/lib/python3.12/site-packages/ase (version 3.24.0)
numpy:  /home/georgios-vourvachakis/Desktop/DFT_codes/.venv/lib/python3.12/site-packages/numpy (version 2.2.3)
scipy:  /home/georgios-vourvachakis/Desktop/DFT_codes/.venv/lib/python3.12/site-packages/scipy (version 1.15.1)
libxc:  5.2.3
units:  Angstrom and eV
cores: 1
OpenMP: False
OMP_NUM_THREADS: 1

Input parameters:
  kpts: [6 6 2]
  mode: {ecut: 480.0,
         name: pw}
  xc: optPBE-vdW

System changes: positions, numbers, cell, pbc, initial_charges, initial_magmoms 

Initialize ...

species:
  W:
    name: Tungsten
    id: c5cdf39eb2772a6eef4e39aea6cd5c6f
    Z: 74.0
    valence: 14
    core: 60
    charge: 0.0
    file: /home/georgios-vourvachakis/Desktop/DFT_codes/gpaw_datasets/gpaw-setups-0.9.20000/W.revPBE.gz
    compensation charges: {type: gauss,
                           rc: 0.40,
                           lmax: 2}
    cutoffs: {filter: 2.36,
              core: 3.02}
    projectors:
      #              energy  rcut
      - 5s(2.00)   -78.785   1.344
      - 6s(2.00)    -5.639   1.344
      - 5p(6.00)   -43.193   1.355
      - 6p(0.00)    -1.336   1.355
      - 5d(4.00)    -4.444   1.228
      -  d          22.768   1.228
  
    # Using partial waves for W as LCAO basis

  Te:
    name: Tellurium
    id: cecded85d882fd4df90837008c85fd5a
    Z: 52.0
    valence: 6
    core: 46
    charge: 0.0
    file: /home/georgios-vourvachakis/Desktop/DFT_codes/gpaw_datasets/gpaw-setups-0.9.20000/Te.revPBE.gz
    compensation charges: {type: gauss,
                           rc: 0.36,
                           lmax: 2}
    cutoffs: {filter: 2.09,
              core: 3.17}
    projectors:
      #              energy  rcut
      - 5s(2.00)   -15.027   1.180
      - 5p(4.00)    -5.913   1.196
      -  s          12.185   1.180
      -  p          21.299   1.196
      -  d           0.000   1.238
  
    # Using partial waves for Te as LCAO basis

Reference energy: -1616751.480151  # eV

Spin-paired calculation

Convergence criteria:
 Maximum [total energy] change in last 3 cyles: 0.0005 eV / valence electron
 Maximum integral of absolute [dens]ity change: 0.0001 electrons / valence electron
 Maximum integral of absolute [eigenst]ate change: 4e-08 eV^2 / valence electron
 Maximum number of scf [iter]ations: 333
 (Square brackets indicate name in SCF output, whereas a 'c' in
 the SCF output indicates the quantity has converged.)

Symmetries present (total): 6

  ( 1  1  0)  ( 1  0  0)  ( 0  1  0)  ( 0 -1  0)  (-1  0  0)  (-1 -1  0)
  ( 0 -1  0)  ( 0  1  0)  (-1 -1  0)  (-1  0  0)  ( 1  1  0)  ( 1  0  0)
  ( 0  0  1)  ( 0  0  1)  ( 0  0  1)  ( 0  0  1)  ( 0  0  1)  ( 0  0  1)
Note: your k-points are not as symmetric as your crystal!

72 k-points: 6 x 6 x 2 Monkhorst-Pack grid
21 k-points in the irreducible part of the Brillouin zone
       k-points in crystal coordinates                weights
   0:     0.08333333   -0.08333333   -0.25000000          2/72
   1:     0.08333333   -0.08333333    0.25000000          2/72
   2:     0.08333333    0.08333333    0.25000000          4/72
   3:     0.25000000   -0.25000000   -0.25000000          2/72
   4:     0.25000000   -0.25000000    0.25000000          2/72
   5:     0.25000000   -0.08333333   -0.25000000          4/72
   6:     0.25000000   -0.08333333    0.25000000          4/72
   7:     0.25000000    0.08333333   -0.25000000          4/72
   8:     0.25000000    0.08333333    0.25000000          4/72
   9:     0.25000000    0.25000000    0.25000000          4/72
          ...
  20:     0.41666667    0.41666667    0.25000000          4/72

Wave functions: Plane wave expansion
  Cutoff energy: 480.000 eV
  Number of coefficients (min, max): 3546, 3575
  Pulay-stress correction: 0.000000 eV/Ang^3 (de/decut=0.000000)
  Using Numpy's FFT
  ScaLapack parameters: grid=1x1, blocksize=None
  Wavefunction extrapolation:
    Improved wavefunction reuse through dual PAW basis 

Occupation numbers: Fermi-Dirac:
  width: 0.1000  # eV
 

Eigensolver
   Davidson(niter=2) 

Densities:
  Coarse grid: 18*18*72 grid
  Fine grid: 36*36*144 grid
  Total Charge: 0.000000 

Density mixing:
  Method: separate
  Backend: pulay
  Linear mixing parameter: 0.05
  old densities: 5
  Damping of long wavelength oscillations: 50 

Hamiltonian:
  XC and Coulomb potentials evaluated on a 36*36*144 grid
  Using the optPBE-vdW Exchange-Correlation functional
  External potential:
    NoExternalPotential
 

XC parameters: optPBE-vdW with 2 nearest neighbor stencil

Memory estimate:
  Process memory now: 413.05 MiB
  Calculator: 72.42 MiB
    Density: 11.14 MiB
      Arrays: 4.63 MiB
      Localized functions: 4.73 MiB
      Mixer: 1.78 MiB
    Hamiltonian: 3.14 MiB
      Arrays: 3.03 MiB
      XC: 0.00 MiB
      Poisson: 0.00 MiB
      vbar: 0.12 MiB
    Wavefunctions: 58.14 MiB
      Arrays psit_nG: 41.24 MiB
      Eigensolver: 2.44 MiB
      Projections: 1.02 MiB
      Projectors: 11.42 MiB
      PW-descriptor: 2.04 MiB

Total number of cores used: 1

Number of atoms: 6
Number of atomic orbitals: 42
Number of bands in calculation: 36
Number of valence electrons: 52
Bands to converge: occupied

... initialized

Initializing position-dependent things.

Density initialized from atomic densities
Creating initial wave functions:
  36 bands from LCAO basis set

                  
                  
                  
                  
                  
       Te         
                  
                  
                  
                  
                  
                  
         Te       
                  
                  
                  
       W          
                  
                  
                  
                  
                  
                  
         W        
                  
         Te       
                  
                  
                  
                  
                  
                  
                  
                  
                  
       Te         
                  
                  
                  
                  

Positions:
   0 W      1.748000    1.009208    3.523750    ( 0.0000,  0.0000,  0.0000)
   1 W      1.748000   -1.009208   10.571250    ( 0.0000,  0.0000,  0.0000)
   2 Te     1.748000    1.009208   12.262650    ( 0.0000,  0.0000,  0.0000)
   3 Te     1.748000   -1.009208   -5.215150    ( 0.0000,  0.0000,  0.0000)
   4 Te     1.748000    1.009208    1.832350    ( 0.0000,  0.0000,  0.0000)
   5 Te     1.748000   -1.009208   19.310150    ( 0.0000,  0.0000,  0.0000)

Unit cell:
           periodic     x           y           z      points  spacing
  1. axis:    yes    1.748000   -3.027625    0.000000    18     0.1682
  2. axis:    yes    1.748000    3.027625    0.000000    18     0.1682
  3. axis:    yes    0.000000    0.000000   14.095000    72     0.1958

  Lengths:   3.496000   3.496000  14.095000
  Angles:   90.000000  90.000000 120.000000

Effective grid spacing dv^(1/3) = 0.1856

     iter     time        total  log10-change:
                         energy   eigst   dens
iter:   1 10:23:48   -91.719436
iter:   2 10:23:52   -89.551204   -0.72  -0.95
iter:   3 10:23:56   -88.177978   -1.25  -1.11
iter:   4 10:24:00   -87.490441   -1.44  -1.24
iter:   5 10:24:04   -87.153749   -1.67  -1.41
iter:   6 10:24:08   -87.145912   -2.55  -1.82
iter:   7 10:24:12   -87.144549c  -3.57  -1.88
iter:   8 10:24:16   -87.153784c  -2.59  -1.90
iter:   9 10:24:21   -87.150458c  -3.17  -2.22
iter:  10 10:24:25   -87.150264c  -4.32  -2.64
iter:  11 10:24:29   -87.149527c  -4.30  -2.68
iter:  12 10:24:33   -87.149420c  -4.53  -2.95
iter:  13 10:24:37   -87.149474c  -5.17  -3.10
iter:  14 10:24:41   -87.149483c  -5.60  -3.18
iter:  15 10:24:45   -87.149437c  -5.72  -3.27
iter:  16 10:24:49   -87.149311c  -5.41  -3.47
iter:  17 10:24:53   -87.149385c  -5.75  -3.50
iter:  18 10:24:57   -87.149411c  -6.45  -3.76
iter:  19 10:25:01   -87.149361c  -6.57  -3.78
iter:  20 10:25:05   -87.149385c  -6.86  -4.14c
iter:  21 10:25:09   -87.149399c  -7.04  -4.46c
iter:  22 10:25:13   -87.149388c  -8.35c -4.50c

Converged after 22 iterations.

Dipole moment: (0.000000, -0.000000, -0.173964) |e|*Ang

Energy contributions relative to reference atoms: (reference = -1616751.480151)

Kinetic:       +553.253940
Potential:     -467.242426
External:        +0.000000
XC:            -171.139293
Entropy (-ST):   -0.066734
Local:           -1.988243
SIC:             +0.000000
--------------------------
Free energy:    -87.182755
Extrapolated:   -87.149388

Showing only first 2 kpts
 Kpt  Band  Eigenvalues  Occupancy
  0    24      7.74310    1.99999
  0    25      8.86364    1.68703
  0    26     10.38222    0.00000
  0    27     10.50971    0.00000

  1    24      7.74310    1.99999
  1    25      8.86364    1.68703
  1    26     10.38222    0.00000
  1    27     10.50971    0.00000


Fermi level: 9.03210

No gap
No difference between direct/indirect transitions
Timing:                              incl.     excl.
-----------------------------------------------------------
Hamiltonian:                         2.137     0.000   0.0% |
 Atomic:                             0.149     0.000   0.0% |
  XC Correction:                     0.149     0.149   0.2% |
 Calculate atomic Hamiltonians:      0.005     0.005   0.0% |
 Communicate:                        0.000     0.000   0.0% |
 Initialize Hamiltonian:             0.000     0.000   0.0% |
 Poisson:                            0.000     0.000   0.0% |
 XC 3D grid:                         1.983     0.133   0.1% |
  VdW-DF integral:                   1.849     0.020   0.0% |
   Convolution:                      0.074     0.074   0.1% |
   FFT:                              0.020     0.020   0.0% |
   gather:                           0.000     0.000   0.0% |
   hmm1:                             0.002     0.002   0.0% |
   hmm2:                             0.058     0.058   0.1% |
   iFFT:                             0.042     0.042   0.0% |
   potential:                        0.081     0.001   0.0% |
    collect:                         0.000     0.000   0.0% |
    p1:                              0.010     0.010   0.0% |
    p2:                              0.070     0.070   0.1% |
    sum:                             0.000     0.000   0.0% |
   splines:                          1.552     1.552   1.7% ||
LCAO initialization:                 3.450     0.049   0.1% |
 LCAO eigensolver:                   1.706     0.001   0.0% |
  Calculate projections:             0.002     0.002   0.0% |
  DenseAtomicCorrection:             0.004     0.004   0.0% |
  Distribute overlap matrix:         0.000     0.000   0.0% |
  Orbital Layouts:                   0.914     0.914   1.0% |
  Potential matrix:                  0.160     0.160   0.2% |
  Sum over cells:                    0.625     0.625   0.7% |
 LCAO to grid:                       1.543     1.543   1.7% ||
 Set positions (LCAO WFS):           0.152     0.027   0.0% |
  Basic WFS set positions:           0.000     0.000   0.0% |
  Basis functions set positions:     0.000     0.000   0.0% |
  P tci:                             0.070     0.070   0.1% |
  ST tci:                            0.050     0.050   0.1% |
  mktci:                             0.004     0.004   0.0% |
PWDescriptor:                        0.011     0.011   0.0% |
SCF-cycle:                          87.546     0.245   0.3% |
 Davidson:                          68.853     7.293   7.8% |--|
  Apply H:                          13.515    13.354  14.3% |-----|
   HMM T:                            0.161     0.161   0.2% |
  Subspace diag:                    14.825     0.023   0.0% |
   calc_h_matrix:                   13.828     0.563   0.6% |
    Apply H:                        13.266    13.092  14.0% |-----|
     HMM T:                          0.174     0.174   0.2% |
   diagonalize:                      0.152     0.152   0.2% |
   rotate_psi:                       0.822     0.822   0.9% |
  calc. matrices:                   29.938     3.340   3.6% ||
   Apply H:                         26.598    26.280  28.2% |----------|
    HMM T:                           0.318     0.318   0.3% |
  diagonalize:                       1.673     1.673   1.8% ||
  rotate_psi:                        1.610     1.610   1.7% ||
 Density:                            6.440     0.000   0.0% |
  Atomic density matrices:           0.038     0.038   0.0% |
  Mix:                               1.453     1.453   1.6% ||
  Multipole moments:                 0.002     0.002   0.0% |
  Pseudo density:                    4.947     4.918   5.3% |-|
   Symmetrize density:               0.029     0.029   0.0% |
 Hamiltonian:                       11.907     0.013   0.0% |
  Atomic:                            3.133     0.009   0.0% |
   XC Correction:                    3.124     3.124   3.3% ||
  Calculate atomic Hamiltonians:     0.103     0.103   0.1% |
  Communicate:                       0.000     0.000   0.0% |
  Poisson:                           0.010     0.010   0.0% |
  XC 3D grid:                        8.648     2.220   2.4% ||
   VdW-DF integral:                  6.428     0.327   0.4% |
    Convolution:                     1.844     1.844   2.0% ||
    FFT:                             0.443     0.443   0.5% |
    gather:                          0.007     0.007   0.0% |
    hmm1:                            0.034     0.034   0.0% |
    hmm2:                            1.249     1.249   1.3% ||
    iFFT:                            0.830     0.830   0.9% |
    potential:                       1.694     0.015   0.0% |
     collect:                        0.000     0.000   0.0% |
     p1:                             0.214     0.214   0.2% |
     p2:                             1.466     1.466   1.6% ||
     sum:                            0.000     0.000   0.0% |
    splines:                         0.000     0.000   0.0% |
 Orthonormalize:                     0.101     0.001   0.0% |
  calc_s_matrix:                     0.014     0.014   0.0% |
  inverse-cholesky:                  0.002     0.002   0.0% |
  projections:                       0.064     0.064   0.1% |
  rotate_psi_s:                      0.019     0.019   0.0% |
Set symmetry:                        0.002     0.002   0.0% |
Other:                               0.206     0.206   0.2% |
-----------------------------------------------------------
Total:                                        93.353 100.0%

Memory usage: 419.86 MiB
Date: Tue Apr  8 10:25:13 2025
