
  ___ ___ ___ _ _ _  
 |   |   |_  | | | | 
 | | | | | . | | | | 
 |__ |  _|___|_____|  25.1.0
 |___|_|             

User:   georgios-vourvachakis@georgios-vourvachakis-82K2
Date:   Tue Apr  8 10:30:10 2025
Arch:   x86_64
Pid:    24499
CWD:    /home/georgios-vourvachakis/Desktop/DFT_codes
Python: 3.12.3
gpaw:   /home/georgios-vourvachakis/Desktop/DFT_codes/.venv/lib/python3.12/site-packages/gpaw
_gpaw:  /home/georgios-vourvachakis/Desktop/DFT_codes/.venv/lib/python3.12/site-packages/
        _gpaw.cpython-312-x86_64-linux-gnu.so
ase:    /home/georgios-vourvachakis/Desktop/DFT_codes/.venv/lib/python3.12/site-packages/ase (version 3.24.0)
numpy:  /home/georgios-vourvachakis/Desktop/DFT_codes/.venv/lib/python3.12/site-packages/numpy (version 2.2.3)
scipy:  /home/georgios-vourvachakis/Desktop/DFT_codes/.venv/lib/python3.12/site-packages/scipy (version 1.15.1)
libxc:  5.2.3
units:  Angstrom and eV
cores: 1
OpenMP: False
OMP_NUM_THREADS: 1

Input parameters:
  kpts: [6 6 2]
  mode: {ecut: 480.0,
         name: pw}
  xc: optPBE-vdW

System changes: positions, numbers, cell, pbc, initial_charges, initial_magmoms 

Initialize ...

species:
  W:
    name: Tungsten
    id: c5cdf39eb2772a6eef4e39aea6cd5c6f
    Z: 74.0
    valence: 14
    core: 60
    charge: 0.0
    file: /home/georgios-vourvachakis/Desktop/DFT_codes/gpaw_datasets/gpaw-setups-0.9.20000/W.revPBE.gz
    compensation charges: {type: gauss,
                           rc: 0.40,
                           lmax: 2}
    cutoffs: {filter: 2.36,
              core: 3.02}
    projectors:
      #              energy  rcut
      - 5s(2.00)   -78.785   1.344
      - 6s(2.00)    -5.639   1.344
      - 5p(6.00)   -43.193   1.355
      - 6p(0.00)    -1.336   1.355
      - 5d(4.00)    -4.444   1.228
      -  d          22.768   1.228
  
    # Using partial waves for W as LCAO basis

  Te:
    name: Tellurium
    id: cecded85d882fd4df90837008c85fd5a
    Z: 52.0
    valence: 6
    core: 46
    charge: 0.0
    file: /home/georgios-vourvachakis/Desktop/DFT_codes/gpaw_datasets/gpaw-setups-0.9.20000/Te.revPBE.gz
    compensation charges: {type: gauss,
                           rc: 0.36,
                           lmax: 2}
    cutoffs: {filter: 2.09,
              core: 3.17}
    projectors:
      #              energy  rcut
      - 5s(2.00)   -15.027   1.180
      - 5p(4.00)    -5.913   1.196
      -  s          12.185   1.180
      -  p          21.299   1.196
      -  d           0.000   1.238
  
    # Using partial waves for Te as LCAO basis

Reference energy: -1616751.480151  # eV

Spin-paired calculation

Convergence criteria:
 Maximum [total energy] change in last 3 cyles: 0.0005 eV / valence electron
 Maximum integral of absolute [dens]ity change: 0.0001 electrons / valence electron
 Maximum integral of absolute [eigenst]ate change: 4e-08 eV^2 / valence electron
 Maximum number of scf [iter]ations: 333
 (Square brackets indicate name in SCF output, whereas a 'c' in
 the SCF output indicates the quantity has converged.)

Symmetries present (total): 6

  ( 1  1  0)  ( 1  0  0)  ( 0  1  0)  ( 0 -1  0)  (-1  0  0)  (-1 -1  0)
  ( 0 -1  0)  ( 0  1  0)  (-1 -1  0)  (-1  0  0)  ( 1  1  0)  ( 1  0  0)
  ( 0  0  1)  ( 0  0  1)  ( 0  0  1)  ( 0  0  1)  ( 0  0  1)  ( 0  0  1)
Note: your k-points are not as symmetric as your crystal!

72 k-points: 6 x 6 x 2 Monkhorst-Pack grid
21 k-points in the irreducible part of the Brillouin zone
       k-points in crystal coordinates                weights
   0:     0.08333333   -0.08333333   -0.25000000          2/72
   1:     0.08333333   -0.08333333    0.25000000          2/72
   2:     0.08333333    0.08333333    0.25000000          4/72
   3:     0.25000000   -0.25000000   -0.25000000          2/72
   4:     0.25000000   -0.25000000    0.25000000          2/72
   5:     0.25000000   -0.08333333   -0.25000000          4/72
   6:     0.25000000   -0.08333333    0.25000000          4/72
   7:     0.25000000    0.08333333   -0.25000000          4/72
   8:     0.25000000    0.08333333    0.25000000          4/72
   9:     0.25000000    0.25000000    0.25000000          4/72
          ...
  20:     0.41666667    0.41666667    0.25000000          4/72

Wave functions: Plane wave expansion
  Cutoff energy: 480.000 eV
  Number of coefficients (min, max): 3589, 3618
  Pulay-stress correction: 0.000000 eV/Ang^3 (de/decut=0.000000)
  Using Numpy's FFT
  ScaLapack parameters: grid=1x1, blocksize=None
  Wavefunction extrapolation:
    Improved wavefunction reuse through dual PAW basis 

Occupation numbers: Fermi-Dirac:
  width: 0.1000  # eV
 

Eigensolver
   Davidson(niter=2) 

Densities:
  Coarse grid: 18*18*72 grid
  Fine grid: 36*36*144 grid
  Total Charge: 0.000000 

Density mixing:
  Method: separate
  Backend: pulay
  Linear mixing parameter: 0.05
  old densities: 5
  Damping of long wavelength oscillations: 50 

Hamiltonian:
  XC and Coulomb potentials evaluated on a 36*36*144 grid
  Using the optPBE-vdW Exchange-Correlation functional
  External potential:
    NoExternalPotential
 

XC parameters: optPBE-vdW with 2 nearest neighbor stencil

Memory estimate:
  Process memory now: 434.89 MiB
  Calculator: 73.16 MiB
    Density: 11.19 MiB
      Arrays: 4.63 MiB
      Localized functions: 4.78 MiB
      Mixer: 1.78 MiB
    Hamiltonian: 3.14 MiB
      Arrays: 3.03 MiB
      XC: 0.00 MiB
      Poisson: 0.00 MiB
      vbar: 0.12 MiB
    Wavefunctions: 58.82 MiB
      Arrays psit_nG: 41.74 MiB
      Eigensolver: 2.46 MiB
      Projections: 1.02 MiB
      Projectors: 11.56 MiB
      PW-descriptor: 2.05 MiB

Total number of cores used: 1

Number of atoms: 6
Number of atomic orbitals: 42
Number of bands in calculation: 36
Number of valence electrons: 52
Bands to converge: occupied

... initialized

Initializing position-dependent things.

Density initialized from atomic densities
Creating initial wave functions:
  36 bands from LCAO basis set

                  
                  
                  
                  
                  
       Te         
                  
                  
                  
                  
                  
                  
         Te       
                  
                  
                  
       W          
                  
                  
                  
                  
                  
                  
         W        
                  
         Te       
                  
                  
                  
                  
                  
                  
                  
                  
                  
       Te         
                  
                  
                  
                  

Positions:
   0 W      1.760500    1.016425    3.517500    ( 0.0000,  0.0000,  0.0000)
   1 W      1.760500   -1.016425   10.552500    ( 0.0000,  0.0000,  0.0000)
   2 Te     1.760500    1.016425   12.240900    ( 0.0000,  0.0000,  0.0000)
   3 Te     1.760500   -1.016425   -5.205900    ( 0.0000,  0.0000,  0.0000)
   4 Te     1.760500    1.016425    1.829100    ( 0.0000,  0.0000,  0.0000)
   5 Te     1.760500   -1.016425   19.275900    ( 0.0000,  0.0000,  0.0000)

Unit cell:
           periodic     x           y           z      points  spacing
  1. axis:    yes    1.760500   -3.049275    0.000000    18     0.1694
  2. axis:    yes    1.760500    3.049275    0.000000    18     0.1694
  3. axis:    yes    0.000000    0.000000   14.070000    72     0.1954

  Lengths:   3.521000   3.521000  14.070000
  Angles:   90.000000  90.000000 120.000000

Effective grid spacing dv^(1/3) = 0.1864

     iter     time        total  log10-change:
                         energy   eigst   dens
iter:   1 10:30:19   -91.389700
iter:   2 10:30:23   -89.182181   -0.71  -0.95
iter:   3 10:30:27   -87.808165   -1.24  -1.11
iter:   4 10:30:31   -87.104401   -1.45  -1.24
iter:   5 10:30:35   -86.773855   -1.66  -1.41
iter:   6 10:30:39   -86.765479   -2.51  -1.82
iter:   7 10:30:43   -86.761947c  -3.46  -1.88
iter:   8 10:30:48   -86.772416c  -2.63  -1.92
iter:   9 10:30:52   -86.768870c  -3.25  -2.26
iter:  10 10:30:56   -86.770039c  -3.87  -2.58
iter:  11 10:31:00   -86.768832c  -3.78  -2.63
iter:  12 10:31:04   -86.768721c  -4.92  -3.03
iter:  13 10:31:08   -86.768712c  -5.81  -3.18
iter:  14 10:31:13   -86.768553c  -5.46  -3.21
iter:  15 10:31:17   -86.768577c  -6.24  -3.63
iter:  16 10:31:21   -86.768629c  -6.27  -3.77
iter:  17 10:31:25   -86.768627c  -7.20  -3.83
iter:  18 10:31:29   -86.768619c  -6.98  -3.93
iter:  19 10:31:33   -86.768616c  -7.77c -4.02c

Converged after 19 iterations.

Dipole moment: (0.000000, -0.000000, -0.186602) |e|*Ang

Energy contributions relative to reference atoms: (reference = -1616751.480151)

Kinetic:       +552.822679
Potential:     -466.913848
External:        +0.000000
XC:            -170.680250
Entropy (-ST):   -0.070684
Local:           -1.961856
SIC:             +0.000000
--------------------------
Free energy:    -86.803958
Extrapolated:   -86.768616

Showing only first 2 kpts
 Kpt  Band  Eigenvalues  Occupancy
  0    24      7.64555    1.99999
  0    25      8.77582    1.52467
  0    26     10.15460    0.00001
  0    27     10.28418    0.00000

  1    24      7.64555    1.99999
  1    25      8.77582    1.52467
  1    26     10.15460    0.00001
  1    27     10.28418    0.00000


Fermi level: 8.89237

No gap
No difference between direct/indirect transitions
Timing:                              incl.     excl.
-----------------------------------------------------------
Hamiltonian:                         2.150     0.001   0.0% |
 Atomic:                             0.148     0.000   0.0% |
  XC Correction:                     0.148     0.148   0.2% |
 Calculate atomic Hamiltonians:      0.006     0.006   0.0% |
 Communicate:                        0.000     0.000   0.0% |
 Initialize Hamiltonian:             0.000     0.000   0.0% |
 Poisson:                            0.000     0.000   0.0% |
 XC 3D grid:                         1.995     0.126   0.2% |
  VdW-DF integral:                   1.869     0.020   0.0% |
   Convolution:                      0.075     0.075   0.1% |
   FFT:                              0.021     0.021   0.0% |
   gather:                           0.000     0.000   0.0% |
   hmm1:                             0.001     0.001   0.0% |
   hmm2:                             0.060     0.060   0.1% |
   iFFT:                             0.045     0.045   0.1% |
   potential:                        0.081     0.001   0.0% |
    collect:                         0.000     0.000   0.0% |
    p1:                              0.010     0.010   0.0% |
    p2:                              0.070     0.070   0.1% |
    sum:                             0.000     0.000   0.0% |
   splines:                          1.565     1.565   1.9% ||
LCAO initialization:                 3.233     0.050   0.1% |
 LCAO eigensolver:                   1.522     0.001   0.0% |
  Calculate projections:             0.002     0.002   0.0% |
  DenseAtomicCorrection:             0.004     0.004   0.0% |
  Distribute overlap matrix:         0.000     0.000   0.0% |
  Orbital Layouts:                   0.778     0.778   0.9% |
  Potential matrix:                  0.148     0.148   0.2% |
  Sum over cells:                    0.589     0.589   0.7% |
 LCAO to grid:                       1.518     1.518   1.8% ||
 Set positions (LCAO WFS):           0.144     0.024   0.0% |
  Basic WFS set positions:           0.000     0.000   0.0% |
  Basis functions set positions:     0.000     0.000   0.0% |
  P tci:                             0.066     0.066   0.1% |
  ST tci:                            0.050     0.050   0.1% |
  mktci:                             0.004     0.004   0.0% |
PWDescriptor:                        0.011     0.011   0.0% |
SCF-cycle:                          78.224     0.235   0.3% |
 Davidson:                          61.986     6.579   7.8% |--|
  Apply H:                          12.086    11.942  14.2% |-----|
   HMM T:                            0.145     0.145   0.2% |
  Subspace diag:                    13.366     0.020   0.0% |
   calc_h_matrix:                   12.461     0.503   0.6% |
    Apply H:                        11.958    11.804  14.1% |-----|
     HMM T:                          0.154     0.154   0.2% |
   diagonalize:                      0.136     0.136   0.2% |
   rotate_psi:                       0.748     0.748   0.9% |
  calc. matrices:                   27.102     3.021   3.6% ||
   Apply H:                         24.081    23.786  28.4% |----------|
    HMM T:                           0.295     0.295   0.4% |
  diagonalize:                       1.402     1.402   1.7% ||
  rotate_psi:                        1.451     1.451   1.7% ||
 Density:                            5.606     0.000   0.0% |
  Atomic density matrices:           0.033     0.033   0.0% |
  Mix:                               1.251     1.251   1.5% ||
  Multipole moments:                 0.002     0.002   0.0% |
  Pseudo density:                    4.320     4.295   5.1% |-|
   Symmetrize density:               0.025     0.025   0.0% |
 Hamiltonian:                       10.289     0.012   0.0% |
  Atomic:                            2.690     0.008   0.0% |
   XC Correction:                    2.682     2.682   3.2% ||
  Calculate atomic Hamiltonians:     0.089     0.089   0.1% |
  Communicate:                       0.000     0.000   0.0% |
  Poisson:                           0.008     0.008   0.0% |
  XC 3D grid:                        7.490     1.905   2.3% ||
   VdW-DF integral:                  5.585     0.127   0.2% |
    Convolution:                     1.815     1.815   2.2% ||
    FFT:                             0.375     0.375   0.4% |
    gather:                          0.006     0.006   0.0% |
    hmm1:                            0.028     0.028   0.0% |
    hmm2:                            1.078     1.078   1.3% ||
    iFFT:                            0.690     0.690   0.8% |
    potential:                       1.466     0.013   0.0% |
     collect:                        0.000     0.000   0.0% |
     p1:                             0.183     0.183   0.2% |
     p2:                             1.270     1.270   1.5% ||
     sum:                            0.000     0.000   0.0% |
    splines:                         0.000     0.000   0.0% |
 Orthonormalize:                     0.108     0.001   0.0% |
  calc_s_matrix:                     0.015     0.015   0.0% |
  inverse-cholesky:                  0.002     0.002   0.0% |
  projections:                       0.068     0.068   0.1% |
  rotate_psi_s:                      0.022     0.022   0.0% |
Set symmetry:                        0.002     0.002   0.0% |
Other:                               0.222     0.222   0.3% |
-----------------------------------------------------------
Total:                                        83.843 100.0%

Memory usage: 434.89 MiB
Date: Tue Apr  8 10:31:34 2025
