
  ___ ___ ___ _ _ _  
 |   |   |_  | | | | 
 | | | | | . | | | | 
 |__ |  _|___|_____|  25.1.0
 |___|_|             

User:   georgios-vourvachakis@georgios-vourvachakis-82K2
Date:   Tue Apr  8 11:11:52 2025
Arch:   x86_64
Pid:    24499
CWD:    /home/georgios-vourvachakis/Desktop/DFT_codes
Python: 3.12.3
gpaw:   /home/georgios-vourvachakis/Desktop/DFT_codes/.venv/lib/python3.12/site-packages/gpaw
_gpaw:  /home/georgios-vourvachakis/Desktop/DFT_codes/.venv/lib/python3.12/site-packages/
        _gpaw.cpython-312-x86_64-linux-gnu.so
ase:    /home/georgios-vourvachakis/Desktop/DFT_codes/.venv/lib/python3.12/site-packages/ase (version 3.24.0)
numpy:  /home/georgios-vourvachakis/Desktop/DFT_codes/.venv/lib/python3.12/site-packages/numpy (version 2.2.3)
scipy:  /home/georgios-vourvachakis/Desktop/DFT_codes/.venv/lib/python3.12/site-packages/scipy (version 1.15.1)
libxc:  5.2.3
units:  Angstrom and eV
cores: 1
OpenMP: False
OMP_NUM_THREADS: 1

Input parameters:
  kpts: [6 6 2]
  mode: {ecut: 480.0,
         name: pw}
  xc: optPBE-vdW

System changes: positions, numbers, cell, pbc, initial_charges, initial_magmoms 

Initialize ...

species:
  W:
    name: Tungsten
    id: c5cdf39eb2772a6eef4e39aea6cd5c6f
    Z: 74.0
    valence: 14
    core: 60
    charge: 0.0
    file: /home/georgios-vourvachakis/Desktop/DFT_codes/gpaw_datasets/gpaw-setups-0.9.20000/W.revPBE.gz
    compensation charges: {type: gauss,
                           rc: 0.40,
                           lmax: 2}
    cutoffs: {filter: 2.36,
              core: 3.02}
    projectors:
      #              energy  rcut
      - 5s(2.00)   -78.785   1.344
      - 6s(2.00)    -5.639   1.344
      - 5p(6.00)   -43.193   1.355
      - 6p(0.00)    -1.336   1.355
      - 5d(4.00)    -4.444   1.228
      -  d          22.768   1.228
  
    # Using partial waves for W as LCAO basis

  Te:
    name: Tellurium
    id: cecded85d882fd4df90837008c85fd5a
    Z: 52.0
    valence: 6
    core: 46
    charge: 0.0
    file: /home/georgios-vourvachakis/Desktop/DFT_codes/gpaw_datasets/gpaw-setups-0.9.20000/Te.revPBE.gz
    compensation charges: {type: gauss,
                           rc: 0.36,
                           lmax: 2}
    cutoffs: {filter: 2.09,
              core: 3.17}
    projectors:
      #              energy  rcut
      - 5s(2.00)   -15.027   1.180
      - 5p(4.00)    -5.913   1.196
      -  s          12.185   1.180
      -  p          21.299   1.196
      -  d           0.000   1.238
  
    # Using partial waves for Te as LCAO basis

Reference energy: -1616751.480151  # eV

Spin-paired calculation

Convergence criteria:
 Maximum [total energy] change in last 3 cyles: 0.0005 eV / valence electron
 Maximum integral of absolute [dens]ity change: 0.0001 electrons / valence electron
 Maximum integral of absolute [eigenst]ate change: 4e-08 eV^2 / valence electron
 Maximum number of scf [iter]ations: 333
 (Square brackets indicate name in SCF output, whereas a 'c' in
 the SCF output indicates the quantity has converged.)

Symmetries present (total): 6

  ( 1  1  0)  ( 1  0  0)  ( 0  1  0)  ( 0 -1  0)  (-1  0  0)  (-1 -1  0)
  ( 0 -1  0)  ( 0  1  0)  (-1 -1  0)  (-1  0  0)  ( 1  1  0)  ( 1  0  0)
  ( 0  0  1)  ( 0  0  1)  ( 0  0  1)  ( 0  0  1)  ( 0  0  1)  ( 0  0  1)
Note: your k-points are not as symmetric as your crystal!

72 k-points: 6 x 6 x 2 Monkhorst-Pack grid
21 k-points in the irreducible part of the Brillouin zone
       k-points in crystal coordinates                weights
   0:     0.08333333   -0.08333333   -0.25000000          2/72
   1:     0.08333333   -0.08333333    0.25000000          2/72
   2:     0.08333333    0.08333333    0.25000000          4/72
   3:     0.25000000   -0.25000000   -0.25000000          2/72
   4:     0.25000000   -0.25000000    0.25000000          2/72
   5:     0.25000000   -0.08333333   -0.25000000          4/72
   6:     0.25000000   -0.08333333    0.25000000          4/72
   7:     0.25000000    0.08333333   -0.25000000          4/72
   8:     0.25000000    0.08333333    0.25000000          4/72
   9:     0.25000000    0.25000000    0.25000000          4/72
          ...
  20:     0.41666667    0.41666667    0.25000000          4/72

Wave functions: Plane wave expansion
  Cutoff energy: 480.000 eV
  Number of coefficients (min, max): 3760, 3815
  Pulay-stress correction: 0.000000 eV/Ang^3 (de/decut=0.000000)
  Using Numpy's FFT
  ScaLapack parameters: grid=1x1, blocksize=None
  Wavefunction extrapolation:
    Improved wavefunction reuse through dual PAW basis 

Occupation numbers: Fermi-Dirac:
  width: 0.1000  # eV
 

Eigensolver
   Davidson(niter=2) 

Densities:
  Coarse grid: 20*20*72 grid
  Fine grid: 40*40*144 grid
  Total Charge: 0.000000 

Density mixing:
  Method: separate
  Backend: pulay
  Linear mixing parameter: 0.05
  old densities: 5
  Damping of long wavelength oscillations: 50 

Hamiltonian:
  XC and Coulomb potentials evaluated on a 40*40*144 grid
  Using the optPBE-vdW Exchange-Correlation functional
  External potential:
    NoExternalPotential
 

XC parameters: optPBE-vdW with 2 nearest neighbor stencil

Memory estimate:
  Process memory now: 498.20 MiB
  Calculator: 78.85 MiB
    Density: 12.93 MiB
      Arrays: 5.71 MiB
      Localized functions: 5.02 MiB
      Mixer: 2.20 MiB
    Hamiltonian: 3.86 MiB
      Arrays: 3.74 MiB
      XC: 0.00 MiB
      Poisson: 0.00 MiB
      vbar: 0.12 MiB
    Wavefunctions: 62.06 MiB
      Arrays psit_nG: 44.01 MiB
      Eigensolver: 2.59 MiB
      Projections: 1.02 MiB
      Projectors: 12.13 MiB
      PW-descriptor: 2.32 MiB

Total number of cores used: 1

Number of atoms: 6
Number of atomic orbitals: 42
Number of bands in calculation: 36
Number of valence electrons: 52
Bands to converge: occupied

... initialized

Initializing position-dependent things.

Density initialized from atomic densities
Creating initial wave functions:
  36 bands from LCAO basis set

                  
                  
                  
                  
                  
       Te         
                  
                  
                  
                  
                  
                  
         Te       
                  
                  
                  
       W          
                  
                  
                  
                  
                  
                  
         W        
                  
         Te       
                  
                  
                  
                  
                  
                  
                  
                  
                  
       Te         
                  
                  
                  
                  

Positions:
   0 W      1.798000    1.038076    3.536250    ( 0.0000,  0.0000,  0.0000)
   1 W      1.798000   -1.038076   10.608750    ( 0.0000,  0.0000,  0.0000)
   2 Te     1.798000    1.038076   12.306150    ( 0.0000,  0.0000,  0.0000)
   3 Te     1.798000   -1.038076   -5.233650    ( 0.0000,  0.0000,  0.0000)
   4 Te     1.798000    1.038076    1.838850    ( 0.0000,  0.0000,  0.0000)
   5 Te     1.798000   -1.038076   19.378650    ( 0.0000,  0.0000,  0.0000)

Unit cell:
           periodic     x           y           z      points  spacing
  1. axis:    yes    1.798000   -3.114227    0.000000    20     0.1557
  2. axis:    yes    1.798000    3.114227    0.000000    20     0.1557
  3. axis:    yes    0.000000    0.000000   14.145000    72     0.1965

  Lengths:   3.596000   3.596000  14.145000
  Angles:   90.000000  90.000000 120.000000

Effective grid spacing dv^(1/3) = 0.1765

     iter     time        total  log10-change:
                         energy   eigst   dens
iter:   1 11:12:12   -92.926824
iter:   2 11:12:24   -90.821652   -0.71  -0.95
iter:   3 11:12:36   -89.542104   -1.26  -1.11
iter:   4 11:12:46   -88.809886   -1.48  -1.23
iter:   5 11:12:54   -88.499737   -1.65  -1.41
iter:   6 11:13:05   -88.492545   -2.41  -1.80
iter:   7 11:13:16   -88.485750c  -3.16  -1.88
iter:   8 11:13:27   -88.496835c  -2.71  -1.97
iter:   9 11:13:36   -88.494023c  -3.20  -2.28
iter:  10 11:13:47   -88.495351c  -3.90  -2.57
iter:  11 11:13:55   -88.493733c  -4.19  -2.59
iter:  12 11:14:04   -88.493667c  -4.82  -2.83
iter:  13 11:14:15   -88.493187c  -4.35  -2.89
iter:  14 11:14:26   -88.493241c  -5.47  -3.26
iter:  15 11:14:39   -88.493151c  -5.55  -3.29
iter:  16 11:14:52   -88.493189c  -5.79  -3.50
iter:  17 11:15:00   -88.493188c  -6.21  -3.60
iter:  18 11:15:12   -88.493202c  -6.58  -3.81
iter:  19 11:15:20   -88.493199c  -6.36  -3.88
iter:  20 11:15:31   -88.493189c  -7.74c -4.13c

Converged after 20 iterations.

Dipole moment: (-0.000000, -0.000000, -0.206775) |e|*Ang

Energy contributions relative to reference atoms: (reference = -1616751.480151)

Kinetic:       +527.939737
Potential:     -447.017897
External:        +0.000000
XC:            -167.419605
Entropy (-ST):   -0.074778
Local:           -1.958034
SIC:             +0.000000
--------------------------
Free energy:    -88.530578
Extrapolated:   -88.493189

Showing only first 2 kpts
 Kpt  Band  Eigenvalues  Occupancy
  0    24      7.15823    1.99998
  0    25      8.27325    1.19375
  0    26      9.38027    0.00005
  0    27      9.50516    0.00001

  1    24      7.15823    1.99998
  1    25      8.27325    1.19375
  1    26      9.38027    0.00005
  1    27      9.50516    0.00001


Fermi level: 8.31250

No gap
No difference between direct/indirect transitions
Timing:                              incl.     excl.
-----------------------------------------------------------
Hamiltonian:                         2.449     0.001   0.0% |
 Atomic:                             0.152     0.000   0.0% |
  XC Correction:                     0.152     0.152   0.1% |
 Calculate atomic Hamiltonians:      0.009     0.009   0.0% |
 Communicate:                        0.000     0.000   0.0% |
 Initialize Hamiltonian:             0.000     0.000   0.0% |
 Poisson:                            0.000     0.000   0.0% |
 XC 3D grid:                         2.287     0.143   0.1% |
  VdW-DF integral:                   2.144     0.096   0.0% |
   Convolution:                      0.153     0.153   0.1% |
   FFT:                              0.033     0.033   0.0% |
   gather:                           0.000     0.000   0.0% |
   hmm1:                             0.002     0.002   0.0% |
   hmm2:                             0.093     0.093   0.0% |
   iFFT:                             0.047     0.047   0.0% |
   potential:                        0.130     0.001   0.0% |
    collect:                         0.000     0.000   0.0% |
    p1:                              0.013     0.013   0.0% |
    p2:                              0.116     0.116   0.1% |
    sum:                             0.000     0.000   0.0% |
   splines:                          1.589     1.589   0.7% |
LCAO initialization:                 4.177     0.053   0.0% |
 LCAO eigensolver:                   1.681     0.001   0.0% |
  Calculate projections:             0.002     0.002   0.0% |
  DenseAtomicCorrection:             0.005     0.005   0.0% |
  Distribute overlap matrix:         0.001     0.001   0.0% |
  Orbital Layouts:                   0.870     0.870   0.4% |
  Potential matrix:                  0.172     0.172   0.1% |
  Sum over cells:                    0.630     0.630   0.3% |
 LCAO to grid:                       2.287     2.287   1.0% |
 Set positions (LCAO WFS):           0.155     0.026   0.0% |
  Basic WFS set positions:           0.000     0.000   0.0% |
  Basis functions set positions:     0.000     0.000   0.0% |
  P tci:                             0.075     0.075   0.0% |
  ST tci:                            0.050     0.050   0.0% |
  mktci:                             0.004     0.004   0.0% |
PWDescriptor:                        0.014     0.014   0.0% |
SCF-cycle:                         211.804     0.249   0.1% |
 Davidson:                         186.161     8.425   3.9% |-|
  Apply H:                          16.156    15.920   7.3% |--|
   HMM T:                            0.236     0.236   0.1% |
  Subspace diag:                    18.173     0.043   0.0% |
   calc_h_matrix:                   16.988     0.684   0.3% |
    Apply H:                        16.304    16.058   7.3% |--|
     HMM T:                          0.246     0.246   0.1% |
   diagonalize:                      0.168     0.168   0.1% |
   rotate_psi:                       0.974     0.974   0.4% |
  calc. matrices:                   31.700     3.498   1.6% ||
   Apply H:                         28.202    27.767  12.7% |----|
    HMM T:                           0.435     0.435   0.2% |
  diagonalize:                     109.478   109.478  50.1% |-------------------|
  rotate_psi:                        2.229     2.229   1.0% |
 Density:                            8.734     0.000   0.0% |
  Atomic density matrices:           0.039     0.039   0.0% |
  Mix:                               3.077     3.077   1.4% ||
  Multipole moments:                 0.002     0.002   0.0% |
  Pseudo density:                    5.615     5.582   2.6% ||
   Symmetrize density:               0.033     0.033   0.0% |
 Hamiltonian:                       16.536     0.017   0.0% |
  Atomic:                            2.952     0.010   0.0% |
   XC Correction:                    2.941     2.941   1.3% ||
  Calculate atomic Hamiltonians:     0.117     0.117   0.1% |
  Communicate:                       0.000     0.000   0.0% |
  Poisson:                           0.012     0.012   0.0% |
  XC 3D grid:                       13.438     2.791   1.3% ||
   VdW-DF integral:                 10.647     2.195   1.0% |
    Convolution:                     2.428     2.428   1.1% |
    FFT:                             0.637     0.637   0.3% |
    gather:                          0.009     0.009   0.0% |
    hmm1:                            0.031     0.031   0.0% |
    hmm2:                            1.866     1.866   0.9% |
    iFFT:                            0.991     0.991   0.5% |
    potential:                       2.490     0.018   0.0% |
     collect:                        0.000     0.000   0.0% |
     p1:                             0.260     0.260   0.1% |
     p2:                             2.211     2.211   1.0% |
     sum:                            0.000     0.000   0.0% |
    splines:                         0.000     0.000   0.0% |
 Orthonormalize:                     0.124     0.002   0.0% |
  calc_s_matrix:                     0.017     0.017   0.0% |
  inverse-cholesky:                  0.003     0.003   0.0% |
  projections:                       0.077     0.077   0.0% |
  rotate_psi_s:                      0.025     0.025   0.0% |
Set symmetry:                        0.002     0.002   0.0% |
Other:                               0.221     0.221   0.1% |
-----------------------------------------------------------
Total:                                       218.666 100.0%

Memory usage: 498.20 MiB
Date: Tue Apr  8 11:15:31 2025
