
  ___ ___ ___ _ _ _  
 |   |   |_  | | | | 
 | | | | | . | | | | 
 |__ |  _|___|_____|  25.1.0
 |___|_|             

User:   georgios-vourvachakis@georgios-vourvachakis-82K2
Date:   Tue Apr  8 10:43:53 2025
Arch:   x86_64
Pid:    24499
CWD:    /home/georgios-vourvachakis/Desktop/DFT_codes
Python: 3.12.3
gpaw:   /home/georgios-vourvachakis/Desktop/DFT_codes/.venv/lib/python3.12/site-packages/gpaw
_gpaw:  /home/georgios-vourvachakis/Desktop/DFT_codes/.venv/lib/python3.12/site-packages/
        _gpaw.cpython-312-x86_64-linux-gnu.so
ase:    /home/georgios-vourvachakis/Desktop/DFT_codes/.venv/lib/python3.12/site-packages/ase (version 3.24.0)
numpy:  /home/georgios-vourvachakis/Desktop/DFT_codes/.venv/lib/python3.12/site-packages/numpy (version 2.2.3)
scipy:  /home/georgios-vourvachakis/Desktop/DFT_codes/.venv/lib/python3.12/site-packages/scipy (version 1.15.1)
libxc:  5.2.3
units:  Angstrom and eV
cores: 1
OpenMP: False
OMP_NUM_THREADS: 1

Input parameters:
  kpts: [6 6 2]
  mode: {ecut: 480.0,
         name: pw}
  xc: optPBE-vdW

System changes: positions, numbers, cell, pbc, initial_charges, initial_magmoms 

Initialize ...

species:
  W:
    name: Tungsten
    id: c5cdf39eb2772a6eef4e39aea6cd5c6f
    Z: 74.0
    valence: 14
    core: 60
    charge: 0.0
    file: /home/georgios-vourvachakis/Desktop/DFT_codes/gpaw_datasets/gpaw-setups-0.9.20000/W.revPBE.gz
    compensation charges: {type: gauss,
                           rc: 0.40,
                           lmax: 2}
    cutoffs: {filter: 2.36,
              core: 3.02}
    projectors:
      #              energy  rcut
      - 5s(2.00)   -78.785   1.344
      - 6s(2.00)    -5.639   1.344
      - 5p(6.00)   -43.193   1.355
      - 6p(0.00)    -1.336   1.355
      - 5d(4.00)    -4.444   1.228
      -  d          22.768   1.228
  
    # Using partial waves for W as LCAO basis

  Te:
    name: Tellurium
    id: cecded85d882fd4df90837008c85fd5a
    Z: 52.0
    valence: 6
    core: 46
    charge: 0.0
    file: /home/georgios-vourvachakis/Desktop/DFT_codes/gpaw_datasets/gpaw-setups-0.9.20000/Te.revPBE.gz
    compensation charges: {type: gauss,
                           rc: 0.36,
                           lmax: 2}
    cutoffs: {filter: 2.09,
              core: 3.17}
    projectors:
      #              energy  rcut
      - 5s(2.00)   -15.027   1.180
      - 5p(4.00)    -5.913   1.196
      -  s          12.185   1.180
      -  p          21.299   1.196
      -  d           0.000   1.238
  
    # Using partial waves for Te as LCAO basis

Reference energy: -1616751.480151  # eV

Spin-paired calculation

Convergence criteria:
 Maximum [total energy] change in last 3 cyles: 0.0005 eV / valence electron
 Maximum integral of absolute [dens]ity change: 0.0001 electrons / valence electron
 Maximum integral of absolute [eigenst]ate change: 4e-08 eV^2 / valence electron
 Maximum number of scf [iter]ations: 333
 (Square brackets indicate name in SCF output, whereas a 'c' in
 the SCF output indicates the quantity has converged.)

Symmetries present (total): 6

  ( 1  1  0)  ( 1  0  0)  ( 0  1  0)  ( 0 -1  0)  (-1  0  0)  (-1 -1  0)
  ( 0 -1  0)  ( 0  1  0)  (-1 -1  0)  (-1  0  0)  ( 1  1  0)  ( 1  0  0)
  ( 0  0  1)  ( 0  0  1)  ( 0  0  1)  ( 0  0  1)  ( 0  0  1)  ( 0  0  1)
Note: your k-points are not as symmetric as your crystal!

72 k-points: 6 x 6 x 2 Monkhorst-Pack grid
21 k-points in the irreducible part of the Brillouin zone
       k-points in crystal coordinates                weights
   0:     0.08333333   -0.08333333   -0.25000000          2/72
   1:     0.08333333   -0.08333333    0.25000000          2/72
   2:     0.08333333    0.08333333    0.25000000          4/72
   3:     0.25000000   -0.25000000   -0.25000000          2/72
   4:     0.25000000   -0.25000000    0.25000000          2/72
   5:     0.25000000   -0.08333333   -0.25000000          4/72
   6:     0.25000000   -0.08333333    0.25000000          4/72
   7:     0.25000000    0.08333333   -0.25000000          4/72
   8:     0.25000000    0.08333333    0.25000000          4/72
   9:     0.25000000    0.25000000    0.25000000          4/72
          ...
  20:     0.41666667    0.41666667    0.25000000          4/72

Wave functions: Plane wave expansion
  Cutoff energy: 480.000 eV
  Number of coefficients (min, max): 3655, 3702
  Pulay-stress correction: 0.000000 eV/Ang^3 (de/decut=0.000000)
  Using Numpy's FFT
  ScaLapack parameters: grid=1x1, blocksize=None
  Wavefunction extrapolation:
    Improved wavefunction reuse through dual PAW basis 

Occupation numbers: Fermi-Dirac:
  width: 0.1000  # eV
 

Eigensolver
   Davidson(niter=2) 

Densities:
  Coarse grid: 18*18*72 grid
  Fine grid: 36*36*144 grid
  Total Charge: 0.000000 

Density mixing:
  Method: separate
  Backend: pulay
  Linear mixing parameter: 0.05
  old densities: 5
  Damping of long wavelength oscillations: 50 

Hamiltonian:
  XC and Coulomb potentials evaluated on a 36*36*144 grid
  Using the optPBE-vdW Exchange-Correlation functional
  External potential:
    NoExternalPotential
 

XC parameters: optPBE-vdW with 2 nearest neighbor stencil

Memory estimate:
  Process memory now: 453.68 MiB
  Calculator: 74.53 MiB
    Density: 11.28 MiB
      Arrays: 4.63 MiB
      Localized functions: 4.87 MiB
      Mixer: 1.78 MiB
    Hamiltonian: 3.14 MiB
      Arrays: 3.03 MiB
      XC: 0.00 MiB
      Poisson: 0.00 MiB
      vbar: 0.12 MiB
    Wavefunctions: 60.10 MiB
      Arrays psit_nG: 42.70 MiB
      Eigensolver: 2.51 MiB
      Projections: 1.02 MiB
      Projectors: 11.79 MiB
      PW-descriptor: 2.08 MiB

Total number of cores used: 1

Number of atoms: 6
Number of atomic orbitals: 42
Number of bands in calculation: 36
Number of valence electrons: 52
Bands to converge: occupied

... initialized

Initializing position-dependent things.

Density initialized from atomic densities
Creating initial wave functions:
  36 bands from LCAO basis set

                  
                  
                  
                  
                  
       Te         
                  
                  
                  
                  
                  
                  
         Te       
                  
                  
                  
       W          
                  
                  
                  
                  
                  
                  
         W        
                  
         Te       
                  
                  
                  
                  
                  
                  
                  
                  
                  
       Te         
                  
                  
                  
                  

Positions:
   0 W      1.773000    1.023642    3.536250    ( 0.0000,  0.0000,  0.0000)
   1 W      1.773000   -1.023642   10.608750    ( 0.0000,  0.0000,  0.0000)
   2 Te     1.773000    1.023642   12.306150    ( 0.0000,  0.0000,  0.0000)
   3 Te     1.773000   -1.023642   -5.233650    ( 0.0000,  0.0000,  0.0000)
   4 Te     1.773000    1.023642    1.838850    ( 0.0000,  0.0000,  0.0000)
   5 Te     1.773000   -1.023642   19.378650    ( 0.0000,  0.0000,  0.0000)

Unit cell:
           periodic     x           y           z      points  spacing
  1. axis:    yes    1.773000   -3.070926    0.000000    18     0.1706
  2. axis:    yes    1.773000    3.070926    0.000000    18     0.1706
  3. axis:    yes    0.000000    0.000000   14.145000    72     0.1965

  Lengths:   3.546000   3.546000  14.145000
  Angles:   90.000000  90.000000 120.000000

Effective grid spacing dv^(1/3) = 0.1876

     iter     time        total  log10-change:
                         energy   eigst   dens
iter:   1 10:44:09   -92.779947
iter:   2 10:44:17   -90.679522   -0.72  -0.95
iter:   3 10:44:27   -89.374919   -1.26  -1.11
iter:   4 10:44:41   -88.665600   -1.46  -1.23
iter:   5 10:44:51   -88.344888   -1.66  -1.41
iter:   6 10:44:56   -88.336551   -2.50  -1.81
iter:   7 10:45:06   -88.332658c  -3.40  -1.88
iter:   8 10:45:12   -88.343608c  -2.64  -1.93
iter:   9 10:45:17   -88.339472c  -3.26  -2.26
iter:  10 10:45:21   -88.340897c  -3.80  -2.57
iter:  11 10:45:26   -88.339424c  -4.04  -2.62
iter:  12 10:45:31   -88.339320c  -4.95  -2.99
iter:  13 10:45:36   -88.339159c  -4.96  -3.07
iter:  14 10:45:40   -88.339156c  -5.69  -3.21
iter:  15 10:45:45   -88.339159c  -5.65  -3.26
iter:  16 10:45:50   -88.339178c  -6.11  -3.44
iter:  17 10:45:54   -88.339149c  -6.46  -3.55
iter:  18 10:45:59   -88.339134c  -6.50  -3.62
iter:  19 10:46:04   -88.339159c  -6.56  -3.72
iter:  20 10:46:08   -88.339186c  -6.74  -3.85
iter:  21 10:46:13   -88.339194c  -7.74c -4.10c

Converged after 21 iterations.

Dipole moment: (-0.000000, 0.000000, -0.187498) |e|*Ang

Energy contributions relative to reference atoms: (reference = -1616751.480151)

Kinetic:       +536.246376
Potential:     -453.679341
External:        +0.000000
XC:            -168.884666
Entropy (-ST):   -0.068710
Local:           -1.987208
SIC:             +0.000000
--------------------------
Free energy:    -88.373549
Extrapolated:   -88.339194

Showing only first 2 kpts
 Kpt  Band  Eigenvalues  Occupancy
  0    24      7.41070    1.99999
  0    25      8.52333    1.51358
  0    26      9.84526    0.00001
  0    27      9.96938    0.00000

  1    24      7.41070    1.99999
  1    25      8.52333    1.51358
  1    26      9.84526    0.00001
  1    27      9.96938    0.00000


Fermi level: 8.63684

No gap
No difference between direct/indirect transitions
Timing:                              incl.     excl.
-----------------------------------------------------------
Hamiltonian:                         2.285     0.001   0.0% |
 Atomic:                             0.156     0.001   0.0% |
  XC Correction:                     0.155     0.155   0.1% |
 Calculate atomic Hamiltonians:      0.006     0.006   0.0% |
 Communicate:                        0.000     0.000   0.0% |
 Initialize Hamiltonian:             0.000     0.000   0.0% |
 Poisson:                            0.000     0.000   0.0% |
 XC 3D grid:                         2.122     0.143   0.1% |
  VdW-DF integral:                   1.978     0.042   0.0% |
   Convolution:                      0.087     0.087   0.1% |
   FFT:                              0.024     0.024   0.0% |
   gather:                           0.000     0.000   0.0% |
   hmm1:                             0.002     0.002   0.0% |
   hmm2:                             0.069     0.069   0.0% |
   iFFT:                             0.066     0.066   0.0% |
   potential:                        0.130     0.001   0.0% |
    collect:                         0.000     0.000   0.0% |
    p1:                              0.012     0.012   0.0% |
    p2:                              0.117     0.117   0.1% |
    sum:                             0.000     0.000   0.0% |
   splines:                          1.557     1.557   1.1% |
LCAO initialization:                 3.765     0.057   0.0% |
 LCAO eigensolver:                   1.932     0.001   0.0% |
  Calculate projections:             0.002     0.002   0.0% |
  DenseAtomicCorrection:             0.006     0.006   0.0% |
  Distribute overlap matrix:         0.001     0.001   0.0% |
  Orbital Layouts:                   1.010     1.010   0.7% |
  Potential matrix:                  0.172     0.172   0.1% |
  Sum over cells:                    0.740     0.740   0.5% |
 LCAO to grid:                       1.612     1.612   1.1% |
 Set positions (LCAO WFS):           0.164     0.026   0.0% |
  Basic WFS set positions:           0.001     0.001   0.0% |
  Basis functions set positions:     0.000     0.000   0.0% |
  P tci:                             0.080     0.080   0.1% |
  ST tci:                            0.053     0.053   0.0% |
  mktci:                             0.005     0.005   0.0% |
PWDescriptor:                        0.011     0.011   0.0% |
SCF-cycle:                         134.250     0.267   0.2% |
 Davidson:                         112.920     8.788   6.3% |--|
  Apply H:                          15.558    15.356  10.9% |---|
   HMM T:                            0.201     0.201   0.1% |
  Subspace diag:                    17.531     0.032   0.0% |
   calc_h_matrix:                   16.293     0.693   0.5% |
    Apply H:                        15.600    15.390  11.0% |---|
     HMM T:                          0.211     0.211   0.1% |
   diagonalize:                      0.183     0.183   0.1% |
   rotate_psi:                       1.023     1.023   0.7% |
  calc. matrices:                   34.039     3.885   2.8% ||
   Apply H:                         30.154    29.757  21.2% |-------|
    HMM T:                           0.397     0.397   0.3% |
  diagonalize:                      35.016    35.016  24.9% |---------|
  rotate_psi:                        1.990     1.990   1.4% ||
 Density:                            7.161     0.000   0.0% |
  Atomic density matrices:           0.039     0.039   0.0% |
  Mix:                               1.964     1.964   1.4% ||
  Multipole moments:                 0.002     0.002   0.0% |
  Pseudo density:                    5.156     5.127   3.6% ||
   Symmetrize density:               0.029     0.029   0.0% |
 Hamiltonian:                       13.761     0.015   0.0% |
  Atomic:                            3.134     0.010   0.0% |
   XC Correction:                    3.124     3.124   2.2% ||
  Calculate atomic Hamiltonians:     0.125     0.125   0.1% |
  Communicate:                       0.000     0.000   0.0% |
  Poisson:                           0.011     0.011   0.0% |
  XC 3D grid:                       10.476     2.525   1.8% ||
   VdW-DF integral:                  7.951     0.657   0.5% |
    Convolution:                     2.400     2.400   1.7% ||
    FFT:                             0.505     0.505   0.4% |
    gather:                          0.008     0.008   0.0% |
    hmm1:                            0.027     0.027   0.0% |
    hmm2:                            1.421     1.421   1.0% |
    iFFT:                            0.984     0.984   0.7% |
    potential:                       1.949     0.016   0.0% |
     collect:                        0.000     0.000   0.0% |
     p1:                             0.246     0.246   0.2% |
     p2:                             1.688     1.688   1.2% |
     sum:                            0.000     0.000   0.0% |
    splines:                         0.000     0.000   0.0% |
 Orthonormalize:                     0.141     0.001   0.0% |
  calc_s_matrix:                     0.018     0.018   0.0% |
  inverse-cholesky:                  0.003     0.003   0.0% |
  projections:                       0.093     0.093   0.1% |
  rotate_psi_s:                      0.026     0.026   0.0% |
Set symmetry:                        0.002     0.002   0.0% |
Other:                               0.204     0.204   0.1% |
-----------------------------------------------------------
Total:                                       140.517 100.0%

Memory usage: 453.68 MiB
Date: Tue Apr  8 10:46:13 2025
