
  ___ ___ ___ _ _ _  
 |   |   |_  | | | | 
 | | | | | . | | | | 
 |__ |  _|___|_____|  25.1.0
 |___|_|             

User:   georgios-vourvachakis@georgios-vourvachakis-82K2
Date:   Tue Apr  8 10:51:22 2025
Arch:   x86_64
Pid:    24499
CWD:    /home/georgios-vourvachakis/Desktop/DFT_codes
Python: 3.12.3
gpaw:   /home/georgios-vourvachakis/Desktop/DFT_codes/.venv/lib/python3.12/site-packages/gpaw
_gpaw:  /home/georgios-vourvachakis/Desktop/DFT_codes/.venv/lib/python3.12/site-packages/
        _gpaw.cpython-312-x86_64-linux-gnu.so
ase:    /home/georgios-vourvachakis/Desktop/DFT_codes/.venv/lib/python3.12/site-packages/ase (version 3.24.0)
numpy:  /home/georgios-vourvachakis/Desktop/DFT_codes/.venv/lib/python3.12/site-packages/numpy (version 2.2.3)
scipy:  /home/georgios-vourvachakis/Desktop/DFT_codes/.venv/lib/python3.12/site-packages/scipy (version 1.15.1)
libxc:  5.2.3
units:  Angstrom and eV
cores: 1
OpenMP: False
OMP_NUM_THREADS: 1

Input parameters:
  kpts: [6 6 2]
  mode: {ecut: 480.0,
         name: pw}
  xc: optPBE-vdW

System changes: positions, numbers, cell, pbc, initial_charges, initial_magmoms 

Initialize ...

species:
  W:
    name: Tungsten
    id: c5cdf39eb2772a6eef4e39aea6cd5c6f
    Z: 74.0
    valence: 14
    core: 60
    charge: 0.0
    file: /home/georgios-vourvachakis/Desktop/DFT_codes/gpaw_datasets/gpaw-setups-0.9.20000/W.revPBE.gz
    compensation charges: {type: gauss,
                           rc: 0.40,
                           lmax: 2}
    cutoffs: {filter: 2.36,
              core: 3.02}
    projectors:
      #              energy  rcut
      - 5s(2.00)   -78.785   1.344
      - 6s(2.00)    -5.639   1.344
      - 5p(6.00)   -43.193   1.355
      - 6p(0.00)    -1.336   1.355
      - 5d(4.00)    -4.444   1.228
      -  d          22.768   1.228
  
    # Using partial waves for W as LCAO basis

  Te:
    name: Tellurium
    id: cecded85d882fd4df90837008c85fd5a
    Z: 52.0
    valence: 6
    core: 46
    charge: 0.0
    file: /home/georgios-vourvachakis/Desktop/DFT_codes/gpaw_datasets/gpaw-setups-0.9.20000/Te.revPBE.gz
    compensation charges: {type: gauss,
                           rc: 0.36,
                           lmax: 2}
    cutoffs: {filter: 2.09,
              core: 3.17}
    projectors:
      #              energy  rcut
      - 5s(2.00)   -15.027   1.180
      - 5p(4.00)    -5.913   1.196
      -  s          12.185   1.180
      -  p          21.299   1.196
      -  d           0.000   1.238
  
    # Using partial waves for Te as LCAO basis

Reference energy: -1616751.480151  # eV

Spin-paired calculation

Convergence criteria:
 Maximum [total energy] change in last 3 cyles: 0.0005 eV / valence electron
 Maximum integral of absolute [dens]ity change: 0.0001 electrons / valence electron
 Maximum integral of absolute [eigenst]ate change: 4e-08 eV^2 / valence electron
 Maximum number of scf [iter]ations: 333
 (Square brackets indicate name in SCF output, whereas a 'c' in
 the SCF output indicates the quantity has converged.)

Symmetries present (total): 6

  ( 1  1  0)  ( 1  0  0)  ( 0  1  0)  ( 0 -1  0)  (-1  0  0)  (-1 -1  0)
  ( 0 -1  0)  ( 0  1  0)  (-1 -1  0)  (-1  0  0)  ( 1  1  0)  ( 1  0  0)
  ( 0  0  1)  ( 0  0  1)  ( 0  0  1)  ( 0  0  1)  ( 0  0  1)  ( 0  0  1)
Note: your k-points are not as symmetric as your crystal!

72 k-points: 6 x 6 x 2 Monkhorst-Pack grid
21 k-points in the irreducible part of the Brillouin zone
       k-points in crystal coordinates                weights
   0:     0.08333333   -0.08333333   -0.25000000          2/72
   1:     0.08333333   -0.08333333    0.25000000          2/72
   2:     0.08333333    0.08333333    0.25000000          4/72
   3:     0.25000000   -0.25000000   -0.25000000          2/72
   4:     0.25000000   -0.25000000    0.25000000          2/72
   5:     0.25000000   -0.08333333   -0.25000000          4/72
   6:     0.25000000   -0.08333333    0.25000000          4/72
   7:     0.25000000    0.08333333   -0.25000000          4/72
   8:     0.25000000    0.08333333    0.25000000          4/72
   9:     0.25000000    0.25000000    0.25000000          4/72
          ...
  20:     0.41666667    0.41666667    0.25000000          4/72

Wave functions: Plane wave expansion
  Cutoff energy: 480.000 eV
  Number of coefficients (min, max): 3696, 3740
  Pulay-stress correction: 0.000000 eV/Ang^3 (de/decut=0.000000)
  Using Numpy's FFT
  ScaLapack parameters: grid=1x1, blocksize=None
  Wavefunction extrapolation:
    Improved wavefunction reuse through dual PAW basis 

Occupation numbers: Fermi-Dirac:
  width: 0.1000  # eV
 

Eigensolver
   Davidson(niter=2) 

Densities:
  Coarse grid: 20*20*72 grid
  Fine grid: 40*40*144 grid
  Total Charge: 0.000000 

Density mixing:
  Method: separate
  Backend: pulay
  Linear mixing parameter: 0.05
  old densities: 5
  Damping of long wavelength oscillations: 50 

Hamiltonian:
  XC and Coulomb potentials evaluated on a 40*40*144 grid
  Using the optPBE-vdW Exchange-Correlation functional
  External potential:
    NoExternalPotential
 

XC parameters: optPBE-vdW with 2 nearest neighbor stencil

Memory estimate:
  Process memory now: 477.34 MiB
  Calculator: 77.60 MiB
    Density: 12.83 MiB
      Arrays: 5.71 MiB
      Localized functions: 4.92 MiB
      Mixer: 2.20 MiB
    Hamiltonian: 3.85 MiB
      Arrays: 3.74 MiB
      XC: 0.00 MiB
      Poisson: 0.00 MiB
      vbar: 0.12 MiB
    Wavefunctions: 60.91 MiB
      Arrays psit_nG: 43.14 MiB
      Eigensolver: 2.54 MiB
      Projections: 1.02 MiB
      Projectors: 11.92 MiB
      PW-descriptor: 2.30 MiB

Total number of cores used: 1

Number of atoms: 6
Number of atomic orbitals: 42
Number of bands in calculation: 36
Number of valence electrons: 52
Bands to converge: occupied

... initialized

Initializing position-dependent things.

Density initialized from atomic densities
Creating initial wave functions:
  36 bands from LCAO basis set

                  
                  
                  
                  
                  
       Te         
                  
                  
                  
                  
                  
                  
         Te       
                  
                  
                  
       W          
                  
                  
                  
                  
                  
                  
         W        
                  
         Te       
                  
                  
                  
                  
                  
                  
                  
                  
                  
       Te         
                  
                  
                  
                  

Positions:
   0 W      1.785500    1.030859    3.523750    ( 0.0000,  0.0000,  0.0000)
   1 W      1.785500   -1.030859   10.571250    ( 0.0000,  0.0000,  0.0000)
   2 Te     1.785500    1.030859   12.262650    ( 0.0000,  0.0000,  0.0000)
   3 Te     1.785500   -1.030859   -5.215150    ( 0.0000,  0.0000,  0.0000)
   4 Te     1.785500    1.030859    1.832350    ( 0.0000,  0.0000,  0.0000)
   5 Te     1.785500   -1.030859   19.310150    ( 0.0000,  0.0000,  0.0000)

Unit cell:
           periodic     x           y           z      points  spacing
  1. axis:    yes    1.785500   -3.092577    0.000000    20     0.1546
  2. axis:    yes    1.785500    3.092577    0.000000    20     0.1546
  3. axis:    yes    0.000000    0.000000   14.095000    72     0.1958

  Lengths:   3.571000   3.571000  14.095000
  Angles:   90.000000  90.000000 120.000000

Effective grid spacing dv^(1/3) = 0.1755

     iter     time        total  log10-change:
                         energy   eigst   dens
iter:   1 10:51:35   -92.005568
iter:   2 10:51:41   -89.829570   -0.71  -0.95
iter:   3 10:51:48   -88.501514   -1.25  -1.11
iter:   4 10:51:55   -87.776030   -1.47  -1.23
iter:   5 10:52:01   -87.457610   -1.65  -1.41
iter:   6 10:52:07   -87.450022   -2.43  -1.81
iter:   7 10:52:13   -87.443662c  -3.23  -1.88
iter:   8 10:52:21   -87.455073c  -2.70  -1.96
iter:   9 10:52:33   -87.452111c  -3.20  -2.27
iter:  10 10:52:41   -87.453616c  -3.82  -2.57
iter:  11 10:52:55   -87.452008c  -4.18  -2.60
iter:  12 10:53:12   -87.451919c  -4.86  -2.84
iter:  13 10:53:29   -87.451482c  -4.41  -2.91
iter:  14 10:53:44   -87.451532c  -5.47  -3.22
iter:  15 10:54:00   -87.451446c  -5.14  -3.24
iter:  16 10:54:15   -87.451444c  -5.87  -3.54
iter:  17 10:54:32   -87.451496c  -5.92  -3.79
iter:  18 10:54:47   -87.451492c  -7.16  -4.03c
iter:  19 10:55:04   -87.451488c  -7.85c -4.15c

Converged after 19 iterations.

Dipole moment: (-0.000000, 0.000000, -0.202636) |e|*Ang

Energy contributions relative to reference atoms: (reference = -1616751.480151)

Kinetic:       +540.325575
Potential:     -456.941285
External:        +0.000000
XC:            -168.833613
Entropy (-ST):   -0.074720
Local:           -1.964805
SIC:             +0.000000
--------------------------
Free energy:    -87.488848
Extrapolated:   -87.451488

Showing only first 2 kpts
 Kpt  Band  Eigenvalues  Occupancy
  0    24      7.35165    1.99998
  0    25      8.47932    1.25519
  0    26      9.65337    0.00003
  0    27      9.78160    0.00001

  1    24      7.35165    1.99998
  1    25      8.47932    1.25519
  1    26      9.65337    0.00003
  1    27      9.78160    0.00001


Fermi level: 8.53151

No gap
No difference between direct/indirect transitions
Timing:                              incl.     excl.
-----------------------------------------------------------
Hamiltonian:                         2.468     0.001   0.0% |
 Atomic:                             0.149     0.001   0.0% |
  XC Correction:                     0.148     0.148   0.1% |
 Calculate atomic Hamiltonians:      0.005     0.005   0.0% |
 Communicate:                        0.000     0.000   0.0% |
 Initialize Hamiltonian:             0.000     0.000   0.0% |
 Poisson:                            0.000     0.000   0.0% |
 XC 3D grid:                         2.313     0.160   0.1% |
  VdW-DF integral:                   2.153     0.016   0.0% |
   Convolution:                      0.158     0.158   0.1% |
   FFT:                              0.032     0.032   0.0% |
   gather:                           0.001     0.001   0.0% |
   hmm1:                             0.002     0.002   0.0% |
   hmm2:                             0.087     0.087   0.0% |
   iFFT:                             0.062     0.062   0.0% |
   potential:                        0.134     0.002   0.0% |
    collect:                         0.000     0.000   0.0% |
    p1:                              0.016     0.016   0.0% |
    p2:                              0.116     0.116   0.1% |
    sum:                             0.000     0.000   0.0% |
   splines:                          1.662     1.662   0.7% |
LCAO initialization:                 4.602     0.052   0.0% |
 LCAO eigensolver:                   1.808     0.001   0.0% |
  Calculate projections:             0.002     0.002   0.0% |
  DenseAtomicCorrection:             0.005     0.005   0.0% |
  Distribute overlap matrix:         0.001     0.001   0.0% |
  Orbital Layouts:                   0.918     0.918   0.4% |
  Potential matrix:                  0.185     0.185   0.1% |
  Sum over cells:                    0.697     0.697   0.3% |
 LCAO to grid:                       2.584     2.584   1.2% |
 Set positions (LCAO WFS):           0.158     0.025   0.0% |
  Basic WFS set positions:           0.000     0.000   0.0% |
  Basis functions set positions:     0.000     0.000   0.0% |
  P tci:                             0.075     0.075   0.0% |
  ST tci:                            0.052     0.052   0.0% |
  mktci:                             0.004     0.004   0.0% |
PWDescriptor:                        0.013     0.013   0.0% |
SCF-cycle:                         214.987     0.228   0.1% |
 Davidson:                         187.913     7.851   3.5% ||
  Apply H:                          22.895    22.688  10.2% |---|
   HMM T:                            0.207     0.207   0.1% |
  Subspace diag:                    24.214     0.034   0.0% |
   calc_h_matrix:                   23.098     0.636   0.3% |
    Apply H:                        22.462    22.253  10.0% |---|
     HMM T:                          0.209     0.209   0.1% |
   diagonalize:                      0.168     0.168   0.1% |
   rotate_psi:                       0.914     0.914   0.4% |
  calc. matrices:                   34.001     3.053   1.4% ||
   Apply H:                         30.948    30.574  13.8% |-----|
    HMM T:                           0.374     0.374   0.2% |
  diagonalize:                      97.170    97.170  43.7% |----------------|
  rotate_psi:                        1.782     1.782   0.8% |
 Density:                           10.680     0.000   0.0% |
  Atomic density matrices:           0.034     0.034   0.0% |
  Mix:                               3.802     3.802   1.7% ||
  Multipole moments:                 0.002     0.002   0.0% |
  Pseudo density:                    6.842     6.811   3.1% ||
   Symmetrize density:               0.031     0.031   0.0% |
 Hamiltonian:                       16.044     0.032   0.0% |
  Atomic:                            2.744     0.009   0.0% |
   XC Correction:                    2.735     2.735   1.2% |
  Calculate atomic Hamiltonians:     0.100     0.100   0.0% |
  Communicate:                       0.000     0.000   0.0% |
  Poisson:                           0.011     0.011   0.0% |
  XC 3D grid:                       13.156     2.871   1.3% ||
   VdW-DF integral:                 10.285     1.946   0.9% |
    Convolution:                     2.888     2.888   1.3% ||
    FFT:                             0.558     0.558   0.3% |
    gather:                          0.009     0.009   0.0% |
    hmm1:                            0.026     0.026   0.0% |
    hmm2:                            1.631     1.631   0.7% |
    iFFT:                            0.998     0.998   0.4% |
    potential:                       2.231     0.017   0.0% |
     collect:                        0.000     0.000   0.0% |
     p1:                             0.285     0.285   0.1% |
     p2:                             1.928     1.928   0.9% |
     sum:                            0.000     0.000   0.0% |
    splines:                         0.000     0.000   0.0% |
 Orthonormalize:                     0.121     0.001   0.0% |
  calc_s_matrix:                     0.016     0.016   0.0% |
  inverse-cholesky:                  0.003     0.003   0.0% |
  projections:                       0.077     0.077   0.0% |
  rotate_psi_s:                      0.024     0.024   0.0% |
Set symmetry:                        0.002     0.002   0.0% |
Other:                               0.245     0.245   0.1% |
-----------------------------------------------------------
Total:                                       222.316 100.0%

Memory usage: 477.60 MiB
Date: Tue Apr  8 10:55:04 2025
