
  ___ ___ ___ _ _ _  
 |   |   |_  | | | | 
 | | | | | . | | | | 
 |__ |  _|___|_____|  25.1.0
 |___|_|             

User:   georgios-vourvachakis@georgios-vourvachakis-82K2
Date:   Tue Apr  8 10:27:05 2025
Arch:   x86_64
Pid:    24499
CWD:    /home/georgios-vourvachakis/Desktop/DFT_codes
Python: 3.12.3
gpaw:   /home/georgios-vourvachakis/Desktop/DFT_codes/.venv/lib/python3.12/site-packages/gpaw
_gpaw:  /home/georgios-vourvachakis/Desktop/DFT_codes/.venv/lib/python3.12/site-packages/
        _gpaw.cpython-312-x86_64-linux-gnu.so
ase:    /home/georgios-vourvachakis/Desktop/DFT_codes/.venv/lib/python3.12/site-packages/ase (version 3.24.0)
numpy:  /home/georgios-vourvachakis/Desktop/DFT_codes/.venv/lib/python3.12/site-packages/numpy (version 2.2.3)
scipy:  /home/georgios-vourvachakis/Desktop/DFT_codes/.venv/lib/python3.12/site-packages/scipy (version 1.15.1)
libxc:  5.2.3
units:  Angstrom and eV
cores: 1
OpenMP: False
OMP_NUM_THREADS: 1

Input parameters:
  kpts: [6 6 2]
  mode: {ecut: 480.0,
         name: pw}
  xc: optPBE-vdW

System changes: positions, numbers, cell, pbc, initial_charges, initial_magmoms 

Initialize ...

species:
  W:
    name: Tungsten
    id: c5cdf39eb2772a6eef4e39aea6cd5c6f
    Z: 74.0
    valence: 14
    core: 60
    charge: 0.0
    file: /home/georgios-vourvachakis/Desktop/DFT_codes/gpaw_datasets/gpaw-setups-0.9.20000/W.revPBE.gz
    compensation charges: {type: gauss,
                           rc: 0.40,
                           lmax: 2}
    cutoffs: {filter: 2.36,
              core: 3.02}
    projectors:
      #              energy  rcut
      - 5s(2.00)   -78.785   1.344
      - 6s(2.00)    -5.639   1.344
      - 5p(6.00)   -43.193   1.355
      - 6p(0.00)    -1.336   1.355
      - 5d(4.00)    -4.444   1.228
      -  d          22.768   1.228
  
    # Using partial waves for W as LCAO basis

  Te:
    name: Tellurium
    id: cecded85d882fd4df90837008c85fd5a
    Z: 52.0
    valence: 6
    core: 46
    charge: 0.0
    file: /home/georgios-vourvachakis/Desktop/DFT_codes/gpaw_datasets/gpaw-setups-0.9.20000/Te.revPBE.gz
    compensation charges: {type: gauss,
                           rc: 0.36,
                           lmax: 2}
    cutoffs: {filter: 2.09,
              core: 3.17}
    projectors:
      #              energy  rcut
      - 5s(2.00)   -15.027   1.180
      - 5p(4.00)    -5.913   1.196
      -  s          12.185   1.180
      -  p          21.299   1.196
      -  d           0.000   1.238
  
    # Using partial waves for Te as LCAO basis

Reference energy: -1616751.480151  # eV

Spin-paired calculation

Convergence criteria:
 Maximum [total energy] change in last 3 cyles: 0.0005 eV / valence electron
 Maximum integral of absolute [dens]ity change: 0.0001 electrons / valence electron
 Maximum integral of absolute [eigenst]ate change: 4e-08 eV^2 / valence electron
 Maximum number of scf [iter]ations: 333
 (Square brackets indicate name in SCF output, whereas a 'c' in
 the SCF output indicates the quantity has converged.)

Symmetries present (total): 6

  ( 1  1  0)  ( 1  0  0)  ( 0  1  0)  ( 0 -1  0)  (-1  0  0)  (-1 -1  0)
  ( 0 -1  0)  ( 0  1  0)  (-1 -1  0)  (-1  0  0)  ( 1  1  0)  ( 1  0  0)
  ( 0  0  1)  ( 0  0  1)  ( 0  0  1)  ( 0  0  1)  ( 0  0  1)  ( 0  0  1)
Note: your k-points are not as symmetric as your crystal!

72 k-points: 6 x 6 x 2 Monkhorst-Pack grid
21 k-points in the irreducible part of the Brillouin zone
       k-points in crystal coordinates                weights
   0:     0.08333333   -0.08333333   -0.25000000          2/72
   1:     0.08333333   -0.08333333    0.25000000          2/72
   2:     0.08333333    0.08333333    0.25000000          4/72
   3:     0.25000000   -0.25000000   -0.25000000          2/72
   4:     0.25000000   -0.25000000    0.25000000          2/72
   5:     0.25000000   -0.08333333   -0.25000000          4/72
   6:     0.25000000   -0.08333333    0.25000000          4/72
   7:     0.25000000    0.08333333   -0.25000000          4/72
   8:     0.25000000    0.08333333    0.25000000          4/72
   9:     0.25000000    0.25000000    0.25000000          4/72
          ...
  20:     0.41666667    0.41666667    0.25000000          4/72

Wave functions: Plane wave expansion
  Cutoff energy: 480.000 eV
  Number of coefficients (min, max): 3559, 3586
  Pulay-stress correction: 0.000000 eV/Ang^3 (de/decut=0.000000)
  Using Numpy's FFT
  ScaLapack parameters: grid=1x1, blocksize=None
  Wavefunction extrapolation:
    Improved wavefunction reuse through dual PAW basis 

Occupation numbers: Fermi-Dirac:
  width: 0.1000  # eV
 

Eigensolver
   Davidson(niter=2) 

Densities:
  Coarse grid: 18*18*72 grid
  Fine grid: 36*36*144 grid
  Total Charge: 0.000000 

Density mixing:
  Method: separate
  Backend: pulay
  Linear mixing parameter: 0.05
  old densities: 5
  Damping of long wavelength oscillations: 50 

Hamiltonian:
  XC and Coulomb potentials evaluated on a 36*36*144 grid
  Using the optPBE-vdW Exchange-Correlation functional
  External potential:
    NoExternalPotential
 

XC parameters: optPBE-vdW with 2 nearest neighbor stencil

Memory estimate:
  Process memory now: 426.66 MiB
  Calculator: 72.62 MiB
    Density: 11.16 MiB
      Arrays: 4.63 MiB
      Localized functions: 4.75 MiB
      Mixer: 1.78 MiB
    Hamiltonian: 3.14 MiB
      Arrays: 3.03 MiB
      XC: 0.00 MiB
      Poisson: 0.00 MiB
      vbar: 0.12 MiB
    Wavefunctions: 58.32 MiB
      Arrays psit_nG: 41.37 MiB
      Eigensolver: 2.44 MiB
      Projections: 1.02 MiB
      Projectors: 11.45 MiB
      PW-descriptor: 2.04 MiB

Total number of cores used: 1

Number of atoms: 6
Number of atomic orbitals: 42
Number of bands in calculation: 36
Number of valence electrons: 52
Bands to converge: occupied

... initialized

Initializing position-dependent things.

Density initialized from atomic densities
Creating initial wave functions:
  36 bands from LCAO basis set

                  
                  
                  
                  
                  
       Te         
                  
                  
                  
                  
                  
                  
         Te       
                  
                  
                  
       W          
                  
                  
                  
                  
                  
                  
         W        
                  
         Te       
                  
                  
                  
                  
                  
                  
                  
                  
                  
       Te         
                  
                  
                  
                  

Positions:
   0 W      1.748000    1.009208    3.536250    ( 0.0000,  0.0000,  0.0000)
   1 W      1.748000   -1.009208   10.608750    ( 0.0000,  0.0000,  0.0000)
   2 Te     1.748000    1.009208   12.306150    ( 0.0000,  0.0000,  0.0000)
   3 Te     1.748000   -1.009208   -5.233650    ( 0.0000,  0.0000,  0.0000)
   4 Te     1.748000    1.009208    1.838850    ( 0.0000,  0.0000,  0.0000)
   5 Te     1.748000   -1.009208   19.378650    ( 0.0000,  0.0000,  0.0000)

Unit cell:
           periodic     x           y           z      points  spacing
  1. axis:    yes    1.748000   -3.027625    0.000000    18     0.1682
  2. axis:    yes    1.748000    3.027625    0.000000    18     0.1682
  3. axis:    yes    0.000000    0.000000   14.145000    72     0.1965

  Lengths:   3.496000   3.496000  14.145000
  Angles:   90.000000  90.000000 120.000000

Effective grid spacing dv^(1/3) = 0.1858

     iter     time        total  log10-change:
                         energy   eigst   dens
iter:   1 10:27:14   -92.587333
iter:   2 10:27:18   -90.491056   -0.73  -0.96
iter:   3 10:27:22   -89.151125   -1.26  -1.11
iter:   4 10:27:26   -88.469104   -1.44  -1.24
iter:   5 10:27:30   -88.134166   -1.68  -1.41
iter:   6 10:27:34   -88.126992   -2.58  -1.82
iter:   7 10:27:38   -88.126320c  -3.59  -1.88
iter:   8 10:27:42   -88.136877c  -2.59  -1.89
iter:   9 10:27:46   -88.133564c  -3.03  -2.17
iter:  10 10:27:50   -88.131817c  -4.24  -2.57
iter:  11 10:27:54   -88.130761c  -4.42  -2.67
iter:  12 10:27:58   -88.130669c  -4.38  -2.76
iter:  13 10:28:02   -88.130601c  -5.22  -2.87
iter:  14 10:28:06   -88.130372c  -4.84  -2.91
iter:  15 10:28:10   -88.130483c  -5.69  -3.08
iter:  16 10:28:14   -88.130457c  -6.16  -3.16
iter:  17 10:28:18   -88.130220c  -5.69  -3.24
iter:  18 10:28:22   -88.130246c  -6.32  -3.63
iter:  19 10:28:27   -88.130276c  -6.22  -3.80
iter:  20 10:28:31   -88.130267c  -6.93  -3.99
iter:  21 10:28:35   -88.130266c  -7.42c -4.16c

Converged after 21 iterations.

Dipole moment: (0.000000, -0.000000, -0.168334) |e|*Ang

Energy contributions relative to reference atoms: (reference = -1616751.480151)

Kinetic:       +544.930655
Potential:     -460.605366
External:        +0.000000
XC:            -170.435591
Entropy (-ST):   -0.063656
Local:           -1.988136
SIC:             +0.000000
--------------------------
Free energy:    -88.162094
Extrapolated:   -88.130266

Showing only first 2 kpts
 Kpt  Band  Eigenvalues  Occupancy
  0    24      7.67195    2.00000
  0    25      8.77923    1.74454
  0    26     10.33713    0.00000
  0    27     10.46082    0.00000

  1    24      7.67195    2.00000
  1    25      8.77923    1.74454
  1    26     10.33713    0.00000
  1    27     10.46082    0.00000


Fermi level: 8.97135

No gap
No difference between direct/indirect transitions
Timing:                              incl.     excl.
-----------------------------------------------------------
Hamiltonian:                         2.121     0.000   0.0% |
 Atomic:                             0.149     0.000   0.0% |
  XC Correction:                     0.149     0.149   0.2% |
 Calculate atomic Hamiltonians:      0.005     0.005   0.0% |
 Communicate:                        0.000     0.000   0.0% |
 Initialize Hamiltonian:             0.000     0.000   0.0% |
 Poisson:                            0.000     0.000   0.0% |
 XC 3D grid:                         1.966     0.127   0.1% |
  VdW-DF integral:                   1.839     0.018   0.0% |
   Convolution:                      0.074     0.074   0.1% |
   FFT:                              0.022     0.022   0.0% |
   gather:                           0.000     0.000   0.0% |
   hmm1:                             0.002     0.002   0.0% |
   hmm2:                             0.069     0.069   0.1% |
   iFFT:                             0.041     0.041   0.0% |
   potential:                        0.083     0.001   0.0% |
    collect:                         0.000     0.000   0.0% |
    p1:                              0.010     0.010   0.0% |
    p2:                              0.073     0.073   0.1% |
    sum:                             0.000     0.000   0.0% |
   splines:                          1.530     1.530   1.7% ||
LCAO initialization:                 3.403     0.050   0.1% |
 LCAO eigensolver:                   1.628     0.001   0.0% |
  Calculate projections:             0.002     0.002   0.0% |
  DenseAtomicCorrection:             0.004     0.004   0.0% |
  Distribute overlap matrix:         0.000     0.000   0.0% |
  Orbital Layouts:                   0.861     0.861   1.0% |
  Potential matrix:                  0.154     0.154   0.2% |
  Sum over cells:                    0.606     0.606   0.7% |
 LCAO to grid:                       1.547     1.547   1.7% ||
 Set positions (LCAO WFS):           0.178     0.026   0.0% |
  Basic WFS set positions:           0.000     0.000   0.0% |
  Basis functions set positions:     0.000     0.000   0.0% |
  P tci:                             0.098     0.098   0.1% |
  ST tci:                            0.050     0.050   0.1% |
  mktci:                             0.004     0.004   0.0% |
PWDescriptor:                        0.011     0.011   0.0% |
SCF-cycle:                          84.330     0.210   0.2% |
 Davidson:                          66.411     7.071   7.8% |--|
  Apply H:                          12.988    12.834  14.2% |-----|
   HMM T:                            0.154     0.154   0.2% |
  Subspace diag:                    14.387     0.022   0.0% |
   calc_h_matrix:                   13.388     0.559   0.6% |
    Apply H:                        12.829    12.661  14.1% |-----|
     HMM T:                          0.167     0.167   0.2% |
   diagonalize:                      0.146     0.146   0.2% |
   rotate_psi:                       0.831     0.831   0.9% |
  calc. matrices:                   28.985     3.226   3.6% ||
   Apply H:                         25.759    25.452  28.3% |----------|
    HMM T:                           0.306     0.306   0.3% |
  diagonalize:                       1.400     1.400   1.6% ||
  rotate_psi:                        1.580     1.580   1.8% ||
 Density:                            6.343     0.000   0.0% |
  Atomic density matrices:           0.036     0.036   0.0% |
  Mix:                               1.531     1.531   1.7% ||
  Multipole moments:                 0.002     0.002   0.0% |
  Pseudo density:                    4.774     4.746   5.3% |-|
   Symmetrize density:               0.028     0.028   0.0% |
 Hamiltonian:                       11.263     0.013   0.0% |
  Atomic:                            2.989     0.009   0.0% |
   XC Correction:                    2.981     2.981   3.3% ||
  Calculate atomic Hamiltonians:     0.093     0.093   0.1% |
  Communicate:                       0.000     0.000   0.0% |
  Poisson:                           0.009     0.009   0.0% |
  XC 3D grid:                        8.158     1.998   2.2% ||
   VdW-DF integral:                  6.160     0.299   0.3% |
    Convolution:                     1.791     1.791   2.0% ||
    FFT:                             0.425     0.425   0.5% |
    gather:                          0.007     0.007   0.0% |
    hmm1:                            0.032     0.032   0.0% |
    hmm2:                            1.193     1.193   1.3% ||
    iFFT:                            0.780     0.780   0.9% |
    potential:                       1.633     0.013   0.0% |
     collect:                        0.000     0.000   0.0% |
     p1:                             0.205     0.205   0.2% |
     p2:                             1.415     1.415   1.6% ||
     sum:                            0.000     0.000   0.0% |
    splines:                         0.000     0.000   0.0% |
 Orthonormalize:                     0.102     0.001   0.0% |
  calc_s_matrix:                     0.015     0.015   0.0% |
  inverse-cholesky:                  0.002     0.002   0.0% |
  projections:                       0.064     0.064   0.1% |
  rotate_psi_s:                      0.021     0.021   0.0% |
Set symmetry:                        0.002     0.002   0.0% |
Other:                               0.225     0.225   0.2% |
-----------------------------------------------------------
Total:                                        90.092 100.0%

Memory usage: 434.89 MiB
Date: Tue Apr  8 10:28:35 2025
