
  ___ ___ ___ _ _ _  
 |   |   |_  | | | | 
 | | | | | . | | | | 
 |__ |  _|___|_____|  25.1.0
 |___|_|             

User:   georgios-vourvachakis@georgios-vourvachakis-82K2
Date:   Tue Apr  8 10:28:35 2025
Arch:   x86_64
Pid:    24499
CWD:    /home/georgios-vourvachakis/Desktop/DFT_codes
Python: 3.12.3
gpaw:   /home/georgios-vourvachakis/Desktop/DFT_codes/.venv/lib/python3.12/site-packages/gpaw
_gpaw:  /home/georgios-vourvachakis/Desktop/DFT_codes/.venv/lib/python3.12/site-packages/
        _gpaw.cpython-312-x86_64-linux-gnu.so
ase:    /home/georgios-vourvachakis/Desktop/DFT_codes/.venv/lib/python3.12/site-packages/ase (version 3.24.0)
numpy:  /home/georgios-vourvachakis/Desktop/DFT_codes/.venv/lib/python3.12/site-packages/numpy (version 2.2.3)
scipy:  /home/georgios-vourvachakis/Desktop/DFT_codes/.venv/lib/python3.12/site-packages/scipy (version 1.15.1)
libxc:  5.2.3
units:  Angstrom and eV
cores: 1
OpenMP: False
OMP_NUM_THREADS: 1

Input parameters:
  kpts: [6 6 2]
  mode: {ecut: 480.0,
         name: pw}
  xc: optPBE-vdW

System changes: positions, numbers, cell, pbc, initial_charges, initial_magmoms 

Initialize ...

species:
  W:
    name: Tungsten
    id: c5cdf39eb2772a6eef4e39aea6cd5c6f
    Z: 74.0
    valence: 14
    core: 60
    charge: 0.0
    file: /home/georgios-vourvachakis/Desktop/DFT_codes/gpaw_datasets/gpaw-setups-0.9.20000/W.revPBE.gz
    compensation charges: {type: gauss,
                           rc: 0.40,
                           lmax: 2}
    cutoffs: {filter: 2.36,
              core: 3.02}
    projectors:
      #              energy  rcut
      - 5s(2.00)   -78.785   1.344
      - 6s(2.00)    -5.639   1.344
      - 5p(6.00)   -43.193   1.355
      - 6p(0.00)    -1.336   1.355
      - 5d(4.00)    -4.444   1.228
      -  d          22.768   1.228
  
    # Using partial waves for W as LCAO basis

  Te:
    name: Tellurium
    id: cecded85d882fd4df90837008c85fd5a
    Z: 52.0
    valence: 6
    core: 46
    charge: 0.0
    file: /home/georgios-vourvachakis/Desktop/DFT_codes/gpaw_datasets/gpaw-setups-0.9.20000/Te.revPBE.gz
    compensation charges: {type: gauss,
                           rc: 0.36,
                           lmax: 2}
    cutoffs: {filter: 2.09,
              core: 3.17}
    projectors:
      #              energy  rcut
      - 5s(2.00)   -15.027   1.180
      - 5p(4.00)    -5.913   1.196
      -  s          12.185   1.180
      -  p          21.299   1.196
      -  d           0.000   1.238
  
    # Using partial waves for Te as LCAO basis

Reference energy: -1616751.480151  # eV

Spin-paired calculation

Convergence criteria:
 Maximum [total energy] change in last 3 cyles: 0.0005 eV / valence electron
 Maximum integral of absolute [dens]ity change: 0.0001 electrons / valence electron
 Maximum integral of absolute [eigenst]ate change: 4e-08 eV^2 / valence electron
 Maximum number of scf [iter]ations: 333
 (Square brackets indicate name in SCF output, whereas a 'c' in
 the SCF output indicates the quantity has converged.)

Symmetries present (total): 6

  ( 1  1  0)  ( 1  0  0)  ( 0  1  0)  ( 0 -1  0)  (-1  0  0)  (-1 -1  0)
  ( 0 -1  0)  ( 0  1  0)  (-1 -1  0)  (-1  0  0)  ( 1  1  0)  ( 1  0  0)
  ( 0  0  1)  ( 0  0  1)  ( 0  0  1)  ( 0  0  1)  ( 0  0  1)  ( 0  0  1)
Note: your k-points are not as symmetric as your crystal!

72 k-points: 6 x 6 x 2 Monkhorst-Pack grid
21 k-points in the irreducible part of the Brillouin zone
       k-points in crystal coordinates                weights
   0:     0.08333333   -0.08333333   -0.25000000          2/72
   1:     0.08333333   -0.08333333    0.25000000          2/72
   2:     0.08333333    0.08333333    0.25000000          4/72
   3:     0.25000000   -0.25000000   -0.25000000          2/72
   4:     0.25000000   -0.25000000    0.25000000          2/72
   5:     0.25000000   -0.08333333   -0.25000000          4/72
   6:     0.25000000   -0.08333333    0.25000000          4/72
   7:     0.25000000    0.08333333   -0.25000000          4/72
   8:     0.25000000    0.08333333    0.25000000          4/72
   9:     0.25000000    0.25000000    0.25000000          4/72
          ...
  20:     0.41666667    0.41666667    0.25000000          4/72

Wave functions: Plane wave expansion
  Cutoff energy: 480.000 eV
  Number of coefficients (min, max): 3563, 3590
  Pulay-stress correction: 0.000000 eV/Ang^3 (de/decut=0.000000)
  Using Numpy's FFT
  ScaLapack parameters: grid=1x1, blocksize=None
  Wavefunction extrapolation:
    Improved wavefunction reuse through dual PAW basis 

Occupation numbers: Fermi-Dirac:
  width: 0.1000  # eV
 

Eigensolver
   Davidson(niter=2) 

Densities:
  Coarse grid: 18*18*72 grid
  Fine grid: 36*36*144 grid
  Total Charge: 0.000000 

Density mixing:
  Method: separate
  Backend: pulay
  Linear mixing parameter: 0.05
  old densities: 5
  Damping of long wavelength oscillations: 50 

Hamiltonian:
  XC and Coulomb potentials evaluated on a 36*36*144 grid
  Using the optPBE-vdW Exchange-Correlation functional
  External potential:
    NoExternalPotential
 

XC parameters: optPBE-vdW with 2 nearest neighbor stencil

Memory estimate:
  Process memory now: 434.89 MiB
  Calculator: 72.69 MiB
    Density: 11.16 MiB
      Arrays: 4.63 MiB
      Localized functions: 4.76 MiB
      Mixer: 1.78 MiB
    Hamiltonian: 3.14 MiB
      Arrays: 3.03 MiB
      XC: 0.00 MiB
      Poisson: 0.00 MiB
      vbar: 0.12 MiB
    Wavefunctions: 58.38 MiB
      Arrays psit_nG: 41.41 MiB
      Eigensolver: 2.44 MiB
      Projections: 1.02 MiB
      Projectors: 11.47 MiB
      PW-descriptor: 2.04 MiB

Total number of cores used: 1

Number of atoms: 6
Number of atomic orbitals: 42
Number of bands in calculation: 36
Number of valence electrons: 52
Bands to converge: occupied

... initialized

Initializing position-dependent things.

Density initialized from atomic densities
Creating initial wave functions:
  36 bands from LCAO basis set

                  
                  
                  
                  
                  
       Te         
                  
                  
                  
                  
                  
                  
         Te       
                  
                  
                  
       W          
                  
                  
                  
                  
                  
                  
         W        
                  
         Te       
                  
                  
                  
                  
                  
                  
                  
                  
                  
       Te         
                  
                  
                  
                  

Positions:
   0 W      1.748000    1.009208    3.542500    ( 0.0000,  0.0000,  0.0000)
   1 W      1.748000   -1.009208   10.627500    ( 0.0000,  0.0000,  0.0000)
   2 Te     1.748000    1.009208   12.327900    ( 0.0000,  0.0000,  0.0000)
   3 Te     1.748000   -1.009208   -5.242900    ( 0.0000,  0.0000,  0.0000)
   4 Te     1.748000    1.009208    1.842100    ( 0.0000,  0.0000,  0.0000)
   5 Te     1.748000   -1.009208   19.412900    ( 0.0000,  0.0000,  0.0000)

Unit cell:
           periodic     x           y           z      points  spacing
  1. axis:    yes    1.748000   -3.027625    0.000000    18     0.1682
  2. axis:    yes    1.748000    3.027625    0.000000    18     0.1682
  3. axis:    yes    0.000000    0.000000   14.170000    72     0.1968

  Lengths:   3.496000   3.496000  14.170000
  Angles:   90.000000  90.000000 120.000000

Effective grid spacing dv^(1/3) = 0.1859

     iter     time        total  log10-change:
                         energy   eigst   dens
iter:   1 10:28:44   -93.015817
iter:   2 10:28:48   -90.954658   -0.73  -0.96
iter:   3 10:28:52   -89.630207   -1.26  -1.11
iter:   4 10:28:56   -88.950982   -1.45  -1.24
iter:   5 10:29:00   -88.617273   -1.68  -1.41
iter:   6 10:29:04   -88.610470   -2.59  -1.83
iter:   7 10:29:08   -88.610059c  -3.60  -1.88
iter:   8 10:29:12   -88.622012c  -2.64  -1.89
iter:   9 10:29:16   -88.619283c  -2.92  -2.13
iter:  10 10:29:20   -88.615934c  -4.01  -2.47
iter:  11 10:29:25   -88.614171c  -4.16  -2.61
iter:  12 10:29:29   -88.614078c  -4.55  -2.76
iter:  13 10:29:33   -88.613864c  -5.18  -2.81
iter:  14 10:29:37   -88.613487c  -4.70  -2.86
iter:  15 10:29:41   -88.613786c  -4.95  -3.09
iter:  16 10:29:45   -88.613753c  -6.12  -3.18
iter:  17 10:29:49   -88.613572c  -5.13  -3.23
iter:  18 10:29:53   -88.613646c  -5.54  -3.56
iter:  19 10:29:57   -88.613634c  -6.92  -4.02c
iter:  20 10:30:01   -88.613634c  -7.27  -4.04c
iter:  21 10:30:06   -88.613658c  -7.29  -4.14c
iter:  22 10:30:10   -88.613660c  -8.04c -4.25c

Converged after 22 iterations.

Dipole moment: (0.000000, -0.000000, -0.165350) |e|*Ang

Energy contributions relative to reference atoms: (reference = -1616751.480151)

Kinetic:       +540.725822
Potential:     -457.231329
External:        +0.000000
XC:            -170.088088
Entropy (-ST):   -0.062125
Local:           -1.989003
SIC:             +0.000000
--------------------------
Free energy:    -88.644723
Extrapolated:   -88.613660

Showing only first 2 kpts
 Kpt  Band  Eigenvalues  Occupancy
  0    24      7.63700    2.00000
  0    25      8.73753    1.76934
  0    26     10.31485    0.00000
  0    27     10.43669    0.00000

  1    24      7.63700    2.00000
  1    25      8.73753    1.76934
  1    26     10.31485    0.00000
  1    27     10.43669    0.00000


Fermi level: 8.94128

No gap
No difference between direct/indirect transitions
Timing:                              incl.     excl.
-----------------------------------------------------------
Hamiltonian:                         2.124     0.000   0.0% |
 Atomic:                             0.149     0.000   0.0% |
  XC Correction:                     0.148     0.148   0.2% |
 Calculate atomic Hamiltonians:      0.005     0.005   0.0% |
 Communicate:                        0.000     0.000   0.0% |
 Initialize Hamiltonian:             0.000     0.000   0.0% |
 Poisson:                            0.000     0.000   0.0% |
 XC 3D grid:                         1.970     0.127   0.1% |
  VdW-DF integral:                   1.843     0.018   0.0% |
   Convolution:                      0.075     0.075   0.1% |
   FFT:                              0.023     0.023   0.0% |
   gather:                           0.000     0.000   0.0% |
   hmm1:                             0.001     0.001   0.0% |
   hmm2:                             0.067     0.067   0.1% |
   iFFT:                             0.040     0.040   0.0% |
   potential:                        0.084     0.001   0.0% |
    collect:                         0.000     0.000   0.0% |
    p1:                              0.010     0.010   0.0% |
    p2:                              0.074     0.074   0.1% |
    sum:                             0.000     0.000   0.0% |
   splines:                          1.534     1.534   1.6% ||
LCAO initialization:                 3.423     0.050   0.1% |
 LCAO eigensolver:                   1.695     0.001   0.0% |
  Calculate projections:             0.002     0.002   0.0% |
  DenseAtomicCorrection:             0.004     0.004   0.0% |
  Distribute overlap matrix:         0.000     0.000   0.0% |
  Orbital Layouts:                   0.889     0.889   0.9% |
  Potential matrix:                  0.155     0.155   0.2% |
  Sum over cells:                    0.643     0.643   0.7% |
 LCAO to grid:                       1.532     1.532   1.6% ||
 Set positions (LCAO WFS):           0.147     0.025   0.0% |
  Basic WFS set positions:           0.000     0.000   0.0% |
  Basis functions set positions:     0.000     0.000   0.0% |
  P tci:                             0.067     0.067   0.1% |
  ST tci:                            0.050     0.050   0.1% |
  mktci:                             0.004     0.004   0.0% |
PWDescriptor:                        0.011     0.011   0.0% |
SCF-cycle:                          89.160     0.224   0.2% |
 Davidson:                          70.355     7.433   7.8% |--|
  Apply H:                          13.738    13.575  14.3% |-----|
   HMM T:                            0.162     0.162   0.2% |
  Subspace diag:                    15.101     0.023   0.0% |
   calc_h_matrix:                   14.076     0.572   0.6% |
    Apply H:                        13.503    13.329  14.0% |-----|
     HMM T:                          0.174     0.174   0.2% |
   diagonalize:                      0.155     0.155   0.2% |
   rotate_psi:                       0.847     0.847   0.9% |
  calc. matrices:                   30.612     3.417   3.6% ||
   Apply H:                         27.195    26.876  28.3% |----------|
    HMM T:                           0.318     0.318   0.3% |
  diagonalize:                       1.828     1.828   1.9% ||
  rotate_psi:                        1.643     1.643   1.7% ||
 Density:                            6.611     0.000   0.0% |
  Atomic density matrices:           0.038     0.038   0.0% |
  Mix:                               1.596     1.596   1.7% ||
  Multipole moments:                 0.002     0.002   0.0% |
  Pseudo density:                    4.975     4.946   5.2% |-|
   Symmetrize density:               0.029     0.029   0.0% |
 Hamiltonian:                       11.866     0.014   0.0% |
  Atomic:                            3.143     0.009   0.0% |
   XC Correction:                    3.134     3.134   3.3% ||
  Calculate atomic Hamiltonians:     0.106     0.106   0.1% |
  Communicate:                       0.000     0.000   0.0% |
  Poisson:                           0.010     0.010   0.0% |
  XC 3D grid:                        8.593     2.093   2.2% ||
   VdW-DF integral:                  6.501     0.156   0.2% |
    Convolution:                     2.124     2.124   2.2% ||
    FFT:                             0.434     0.434   0.5% |
    gather:                          0.007     0.007   0.0% |
    hmm1:                            0.035     0.035   0.0% |
    hmm2:                            1.247     1.247   1.3% ||
    iFFT:                            0.800     0.800   0.8% |
    potential:                       1.698     0.014   0.0% |
     collect:                        0.000     0.000   0.0% |
     p1:                             0.214     0.214   0.2% |
     p2:                             1.470     1.470   1.5% ||
     sum:                            0.000     0.000   0.0% |
    splines:                         0.000     0.000   0.0% |
 Orthonormalize:                     0.104     0.001   0.0% |
  calc_s_matrix:                     0.015     0.015   0.0% |
  inverse-cholesky:                  0.002     0.002   0.0% |
  projections:                       0.065     0.065   0.1% |
  rotate_psi_s:                      0.021     0.021   0.0% |
Set symmetry:                        0.003     0.003   0.0% |
Other:                               0.203     0.203   0.2% |
-----------------------------------------------------------
Total:                                        94.925 100.0%

Memory usage: 434.89 MiB
Date: Tue Apr  8 10:30:10 2025
