
  ___ ___ ___ _ _ _  
 |   |   |_  | | | | 
 | | | | | . | | | | 
 |__ |  _|___|_____|  25.1.0
 |___|_|             

User:   georgios-vourvachakis@georgios-vourvachakis-82K2
Date:   Tue Apr  8 10:37:52 2025
Arch:   x86_64
Pid:    24499
CWD:    /home/georgios-vourvachakis/Desktop/DFT_codes
Python: 3.12.3
gpaw:   /home/georgios-vourvachakis/Desktop/DFT_codes/.venv/lib/python3.12/site-packages/gpaw
_gpaw:  /home/georgios-vourvachakis/Desktop/DFT_codes/.venv/lib/python3.12/site-packages/
        _gpaw.cpython-312-x86_64-linux-gnu.so
ase:    /home/georgios-vourvachakis/Desktop/DFT_codes/.venv/lib/python3.12/site-packages/ase (version 3.24.0)
numpy:  /home/georgios-vourvachakis/Desktop/DFT_codes/.venv/lib/python3.12/site-packages/numpy (version 2.2.3)
scipy:  /home/georgios-vourvachakis/Desktop/DFT_codes/.venv/lib/python3.12/site-packages/scipy (version 1.15.1)
libxc:  5.2.3
units:  Angstrom and eV
cores: 1
OpenMP: False
OMP_NUM_THREADS: 1

Input parameters:
  kpts: [6 6 2]
  mode: {ecut: 480.0,
         name: pw}
  xc: optPBE-vdW

System changes: positions, numbers, cell, pbc, initial_charges, initial_magmoms 

Initialize ...

species:
  W:
    name: Tungsten
    id: c5cdf39eb2772a6eef4e39aea6cd5c6f
    Z: 74.0
    valence: 14
    core: 60
    charge: 0.0
    file: /home/georgios-vourvachakis/Desktop/DFT_codes/gpaw_datasets/gpaw-setups-0.9.20000/W.revPBE.gz
    compensation charges: {type: gauss,
                           rc: 0.40,
                           lmax: 2}
    cutoffs: {filter: 2.36,
              core: 3.02}
    projectors:
      #              energy  rcut
      - 5s(2.00)   -78.785   1.344
      - 6s(2.00)    -5.639   1.344
      - 5p(6.00)   -43.193   1.355
      - 6p(0.00)    -1.336   1.355
      - 5d(4.00)    -4.444   1.228
      -  d          22.768   1.228
  
    # Using partial waves for W as LCAO basis

  Te:
    name: Tellurium
    id: cecded85d882fd4df90837008c85fd5a
    Z: 52.0
    valence: 6
    core: 46
    charge: 0.0
    file: /home/georgios-vourvachakis/Desktop/DFT_codes/gpaw_datasets/gpaw-setups-0.9.20000/Te.revPBE.gz
    compensation charges: {type: gauss,
                           rc: 0.36,
                           lmax: 2}
    cutoffs: {filter: 2.09,
              core: 3.17}
    projectors:
      #              energy  rcut
      - 5s(2.00)   -15.027   1.180
      - 5p(4.00)    -5.913   1.196
      -  s          12.185   1.180
      -  p          21.299   1.196
      -  d           0.000   1.238
  
    # Using partial waves for Te as LCAO basis

Reference energy: -1616751.480151  # eV

Spin-paired calculation

Convergence criteria:
 Maximum [total energy] change in last 3 cyles: 0.0005 eV / valence electron
 Maximum integral of absolute [dens]ity change: 0.0001 electrons / valence electron
 Maximum integral of absolute [eigenst]ate change: 4e-08 eV^2 / valence electron
 Maximum number of scf [iter]ations: 333
 (Square brackets indicate name in SCF output, whereas a 'c' in
 the SCF output indicates the quantity has converged.)

Symmetries present (total): 6

  ( 1  1  0)  ( 1  0  0)  ( 0  1  0)  ( 0 -1  0)  (-1  0  0)  (-1 -1  0)
  ( 0 -1  0)  ( 0  1  0)  (-1 -1  0)  (-1  0  0)  ( 1  1  0)  ( 1  0  0)
  ( 0  0  1)  ( 0  0  1)  ( 0  0  1)  ( 0  0  1)  ( 0  0  1)  ( 0  0  1)
Note: your k-points are not as symmetric as your crystal!

72 k-points: 6 x 6 x 2 Monkhorst-Pack grid
21 k-points in the irreducible part of the Brillouin zone
       k-points in crystal coordinates                weights
   0:     0.08333333   -0.08333333   -0.25000000          2/72
   1:     0.08333333   -0.08333333    0.25000000          2/72
   2:     0.08333333    0.08333333    0.25000000          4/72
   3:     0.25000000   -0.25000000   -0.25000000          2/72
   4:     0.25000000   -0.25000000    0.25000000          2/72
   5:     0.25000000   -0.08333333   -0.25000000          4/72
   6:     0.25000000   -0.08333333    0.25000000          4/72
   7:     0.25000000    0.08333333   -0.25000000          4/72
   8:     0.25000000    0.08333333    0.25000000          4/72
   9:     0.25000000    0.25000000    0.25000000          4/72
          ...
  20:     0.41666667    0.41666667    0.25000000          4/72

Wave functions: Plane wave expansion
  Cutoff energy: 480.000 eV
  Number of coefficients (min, max): 3635, 3674
  Pulay-stress correction: 0.000000 eV/Ang^3 (de/decut=0.000000)
  Using Numpy's FFT
  ScaLapack parameters: grid=1x1, blocksize=None
  Wavefunction extrapolation:
    Improved wavefunction reuse through dual PAW basis 

Occupation numbers: Fermi-Dirac:
  width: 0.1000  # eV
 

Eigensolver
   Davidson(niter=2) 

Densities:
  Coarse grid: 18*18*72 grid
  Fine grid: 36*36*144 grid
  Total Charge: 0.000000 

Density mixing:
  Method: separate
  Backend: pulay
  Linear mixing parameter: 0.05
  old densities: 5
  Damping of long wavelength oscillations: 50 

Hamiltonian:
  XC and Coulomb potentials evaluated on a 36*36*144 grid
  Using the optPBE-vdW Exchange-Correlation functional
  External potential:
    NoExternalPotential
 

XC parameters: optPBE-vdW with 2 nearest neighbor stencil

Memory estimate:
  Process memory now: 453.68 MiB
  Calculator: 74.08 MiB
    Density: 11.25 MiB
      Arrays: 4.63 MiB
      Localized functions: 4.84 MiB
      Mixer: 1.78 MiB
    Hamiltonian: 3.14 MiB
      Arrays: 3.03 MiB
      XC: 0.00 MiB
      Poisson: 0.00 MiB
      vbar: 0.12 MiB
    Wavefunctions: 59.69 MiB
      Arrays psit_nG: 42.38 MiB
      Eigensolver: 2.50 MiB
      Projections: 1.02 MiB
      Projectors: 11.73 MiB
      PW-descriptor: 2.07 MiB

Total number of cores used: 1

Number of atoms: 6
Number of atomic orbitals: 42
Number of bands in calculation: 36
Number of valence electrons: 52
Bands to converge: occupied

... initialized

Initializing position-dependent things.

Density initialized from atomic densities
Creating initial wave functions:
  36 bands from LCAO basis set

                  
                  
                  
                  
                  
       Te         
                  
                  
                  
                  
                  
                  
         Te       
                  
                  
                  
       W          
                  
                  
                  
                  
                  
                  
         W        
                  
         Te       
                  
                  
                  
                  
                  
                  
                  
                  
                  
       Te         
                  
                  
                  
                  

Positions:
   0 W      1.773000    1.023642    3.517500    ( 0.0000,  0.0000,  0.0000)
   1 W      1.773000   -1.023642   10.552500    ( 0.0000,  0.0000,  0.0000)
   2 Te     1.773000    1.023642   12.240900    ( 0.0000,  0.0000,  0.0000)
   3 Te     1.773000   -1.023642   -5.205900    ( 0.0000,  0.0000,  0.0000)
   4 Te     1.773000    1.023642    1.829100    ( 0.0000,  0.0000,  0.0000)
   5 Te     1.773000   -1.023642   19.275900    ( 0.0000,  0.0000,  0.0000)

Unit cell:
           periodic     x           y           z      points  spacing
  1. axis:    yes    1.773000   -3.070926    0.000000    18     0.1706
  2. axis:    yes    1.773000    3.070926    0.000000    18     0.1706
  3. axis:    yes    0.000000    0.000000   14.070000    72     0.1954

  Lengths:   3.546000   3.546000  14.070000
  Angles:   90.000000  90.000000 120.000000

Effective grid spacing dv^(1/3) = 0.1873

     iter     time        total  log10-change:
                         energy   eigst   dens
iter:   1 10:38:03   -91.487419
iter:   2 10:38:08   -89.276972   -0.71  -0.95
iter:   3 10:38:13   -87.917012   -1.24  -1.11
iter:   4 10:38:18   -87.200903   -1.46  -1.23
iter:   5 10:38:23   -86.876293   -1.65  -1.41
iter:   6 10:38:28   -86.868119   -2.47  -1.81
iter:   7 10:38:33   -86.862999c  -3.33  -1.88
iter:   8 10:38:39   -86.874189c  -2.67  -1.94
iter:   9 10:38:44   -86.870958c  -3.22  -2.27
iter:  10 10:38:51   -86.872482c  -3.79  -2.57
iter:  11 10:39:01   -86.870873c  -4.04  -2.61
iter:  12 10:39:07   -86.870793c  -4.91  -2.93
iter:  13 10:39:13   -86.870554c  -4.76  -3.01
iter:  14 10:39:18   -86.870567c  -5.62  -3.20
iter:  15 10:39:23   -86.870592c  -5.28  -3.23
iter:  16 10:39:28   -86.870603c  -6.04  -3.67
iter:  17 10:39:33   -86.870596c  -6.30  -3.89
iter:  18 10:39:38   -86.870586c  -6.74  -3.90
iter:  19 10:39:43   -86.870566c  -7.17  -4.12c
iter:  20 10:39:48   -86.870560c  -8.02c -4.23c

Converged after 20 iterations.

Dipole moment: (-0.000000, -0.000000, -0.196271) |e|*Ang

Energy contributions relative to reference atoms: (reference = -1616751.480151)

Kinetic:       +548.731255
Potential:     -463.653650
External:        +0.000000
XC:            -169.929426
Entropy (-ST):   -0.073390
Local:           -1.982044
SIC:             +0.000000
--------------------------
Free energy:    -86.907255
Extrapolated:   -86.870560

Showing only first 2 kpts
 Kpt  Band  Eigenvalues  Occupancy
  0    24      7.51501    1.99999
  0    25      8.64751    1.37030
  0    26      9.91175    0.00001
  0    27     10.04159    0.00000

  1    24      7.51501    1.99999
  1    25      8.64751    1.37030
  1    26      9.91175    0.00001
  1    27     10.04159    0.00000


Fermi level: 8.72526

No gap
No difference between direct/indirect transitions
Timing:                              incl.     excl.
-----------------------------------------------------------
Hamiltonian:                         2.228     0.001   0.0% |
 Atomic:                             0.149     0.000   0.0% |
  XC Correction:                     0.149     0.149   0.1% |
 Calculate atomic Hamiltonians:      0.005     0.005   0.0% |
 Communicate:                        0.000     0.000   0.0% |
 Initialize Hamiltonian:             0.000     0.000   0.0% |
 Poisson:                            0.001     0.001   0.0% |
 XC 3D grid:                         2.072     0.133   0.1% |
  VdW-DF integral:                   1.939     0.020   0.0% |
   Convolution:                      0.115     0.115   0.1% |
   FFT:                              0.024     0.024   0.0% |
   gather:                           0.000     0.000   0.0% |
   hmm1:                             0.002     0.002   0.0% |
   hmm2:                             0.067     0.067   0.1% |
   iFFT:                             0.041     0.041   0.0% |
   potential:                        0.086     0.001   0.0% |
    collect:                         0.000     0.000   0.0% |
    p1:                              0.012     0.012   0.0% |
    p2:                              0.073     0.073   0.1% |
    sum:                             0.000     0.000   0.0% |
   splines:                          1.583     1.583   1.4% ||
LCAO initialization:                 4.003     0.049   0.0% |
 LCAO eigensolver:                   1.877     0.001   0.0% |
  Calculate projections:             0.002     0.002   0.0% |
  DenseAtomicCorrection:             0.006     0.006   0.0% |
  Distribute overlap matrix:         0.001     0.001   0.0% |
  Orbital Layouts:                   0.956     0.956   0.8% |
  Potential matrix:                  0.145     0.145   0.1% |
  Sum over cells:                    0.766     0.766   0.7% |
 LCAO to grid:                       1.929     1.929   1.7% ||
 Set positions (LCAO WFS):           0.148     0.025   0.0% |
  Basic WFS set positions:           0.000     0.000   0.0% |
  Basis functions set positions:     0.000     0.000   0.0% |
  P tci:                             0.069     0.069   0.1% |
  ST tci:                            0.050     0.050   0.0% |
  mktci:                             0.004     0.004   0.0% |
PWDescriptor:                        0.011     0.011   0.0% |
SCF-cycle:                         109.517     0.237   0.2% |
 Davidson:                          89.376     8.652   7.5% |--|
  Apply H:                          15.025    14.811  12.8% |----|
   HMM T:                            0.214     0.214   0.2% |
  Subspace diag:                    17.015     0.035   0.0% |
   calc_h_matrix:                   15.810     0.687   0.6% |
    Apply H:                        15.123    14.903  12.8% |----|
     HMM T:                          0.220     0.220   0.2% |
   diagonalize:                      0.177     0.177   0.2% |
   rotate_psi:                       0.993     0.993   0.9% |
  calc. matrices:                   33.079     3.781   3.3% ||
   Apply H:                         29.298    28.878  24.9% |---------|
    HMM T:                           0.421     0.421   0.4% |
  diagonalize:                      13.661    13.661  11.8% |----|
  rotate_psi:                        1.944     1.944   1.7% ||
 Density:                            6.758     0.000   0.0% |
  Atomic density matrices:           0.037     0.037   0.0% |
  Mix:                               1.797     1.797   1.5% ||
  Multipole moments:                 0.002     0.002   0.0% |
  Pseudo density:                    4.922     4.895   4.2% |-|
   Symmetrize density:               0.027     0.027   0.0% |
 Hamiltonian:                       13.022     0.016   0.0% |
  Atomic:                            2.976     0.009   0.0% |
   XC Correction:                    2.967     2.967   2.6% ||
  Calculate atomic Hamiltonians:     0.111     0.111   0.1% |
  Communicate:                       0.000     0.000   0.0% |
  Poisson:                           0.011     0.011   0.0% |
  XC 3D grid:                        9.909     2.250   1.9% ||
   VdW-DF integral:                  7.659     0.683   0.6% |
    Convolution:                     2.355     2.355   2.0% ||
    FFT:                             0.485     0.485   0.4% |
    gather:                          0.008     0.008   0.0% |
    hmm1:                            0.026     0.026   0.0% |
    hmm2:                            1.353     1.353   1.2% |
    iFFT:                            0.904     0.904   0.8% |
    potential:                       1.845     0.016   0.0% |
     collect:                        0.000     0.000   0.0% |
     p1:                             0.237     0.237   0.2% |
     p2:                             1.591     1.591   1.4% ||
     sum:                            0.000     0.000   0.0% |
    splines:                         0.000     0.000   0.0% |
 Orthonormalize:                     0.124     0.002   0.0% |
  calc_s_matrix:                     0.017     0.017   0.0% |
  inverse-cholesky:                  0.003     0.003   0.0% |
  projections:                       0.078     0.078   0.1% |
  rotate_psi_s:                      0.025     0.025   0.0% |
Set symmetry:                        0.002     0.002   0.0% |
Other:                               0.238     0.238   0.2% |
-----------------------------------------------------------
Total:                                       115.999 100.0%

Memory usage: 453.68 MiB
Date: Tue Apr  8 10:39:48 2025
