
  ___ ___ ___ _ _ _  
 |   |   |_  | | | | 
 | | | | | . | | | | 
 |__ |  _|___|_____|  25.1.0
 |___|_|             

User:   georgios-vourvachakis@georgios-vourvachakis-82K2
Date:   Sat May 10 22:17:23 2025
Arch:   x86_64
Pid:    195338
CWD:    /home/georgios-vourvachakis/Desktop/DFT_codes
Python: 3.12.3
gpaw:   /home/georgios-vourvachakis/Desktop/DFT_codes/.venv/lib/python3.12/site-packages/gpaw
_gpaw:  /home/georgios-vourvachakis/Desktop/DFT_codes/.venv/lib/python3.12/site-packages/
        _gpaw.cpython-312-x86_64-linux-gnu.so
ase:    /home/georgios-vourvachakis/Desktop/DFT_codes/.venv/lib/python3.12/site-packages/ase (version 3.24.0)
numpy:  /home/georgios-vourvachakis/Desktop/DFT_codes/.venv/lib/python3.12/site-packages/numpy (version 2.2.3)
scipy:  /home/georgios-vourvachakis/Desktop/DFT_codes/.venv/lib/python3.12/site-packages/scipy (version 1.15.1)
libxc:  5.2.3
units:  Angstrom and eV
cores: 1
OpenMP: False
OMP_NUM_THREADS: 1

Reading from ./HCl_analysis/HCl.gpw
Read dipole, energy, free_energy, magmom, magmoms
Reading input parameters:
  eigensolver: rmm-diis
  mode: {ecut: 340.0,
         name: pw}
  occupations: {name: fermi-dirac,
                width: 0.0}
  xc: PBE

Initialize ...

species:
  H:
    name: Hydrogen
    id: d65de229564ff8ea4db303e23b6d1ecf
    Z: 1.0
    valence: 1
    core: 0
    charge: 0.0
    file: /home/georgios-vourvachakis/Desktop/DFT_codes/gpaw_datasets/gpaw-setups-0.9.20000/H.PBE.gz
    compensation charges: {type: gauss,
                           rc: 0.15,
                           lmax: 2}
    cutoffs: {filter: 0.85,
              core: 0.53}
    projectors:
      #              energy  rcut
      - 1s(1.00)    -6.494   0.476
      -  s          20.717   0.476
      -  p           0.000   0.476
  
    # Using partial waves for H as LCAO basis

  Cl:
    name: Chlorine
    id: 726897f06f34e53cf8e33b5885a02604
    Z: 17.0
    valence: 7
    core: 10
    charge: 0.0
    file: /home/georgios-vourvachakis/Desktop/DFT_codes/gpaw_datasets/gpaw-setups-0.9.20000/Cl.PBE.gz
    compensation charges: {type: gauss,
                           rc: 0.25,
                           lmax: 2}
    cutoffs: {filter: 1.40,
              core: 1.49}
    projectors:
      #              energy  rcut
      - 3s(2.00)   -20.689   0.794
      - 3p(5.00)    -8.594   0.794
      -  s           6.523   0.794
      -  p          18.617   0.794
      -  d           0.000   0.794
  
    # Using partial waves for Cl as LCAO basis

Reference energy: -12567.439558  # eV

Spin-paired calculation

Convergence criteria:
 Maximum [total energy] change in last 3 cyles: 0.0005 eV / valence electron
 Maximum integral of absolute [dens]ity change: 0.0001 electrons / valence electron
 Maximum integral of absolute [eigenst]ate change: 4e-08 eV^2 / valence electron
 Maximum number of scf [iter]ations: 333
 (Square brackets indicate name in SCF output, whereas a 'c' in
 the SCF output indicates the quantity has converged.)

Symmetries present (total): 8

  ( 1  0  0)  ( 1  0  0)  ( 1  0  0)  ( 1  0  0)  ( 1  0  0)  ( 1  0  0)
  ( 0  1  0)  ( 0  1  0)  ( 0  0  1)  ( 0  0  1)  ( 0  0 -1)  ( 0  0 -1)
  ( 0  0  1)  ( 0  0 -1)  ( 0  1  0)  ( 0 -1  0)  ( 0  1  0)  ( 0 -1  0)

  ( 1  0  0)  ( 1  0  0)
  ( 0 -1  0)  ( 0 -1  0)
  ( 0  0  1)  ( 0  0 -1)

1 k-point (Gamma)
1 k-point in the irreducible part of the Brillouin zone
       k-points in crystal coordinates                weights
   0:     0.00000000    0.00000000    0.00000000          1/1

Wave functions: Plane wave expansion
  Cutoff energy: 340.000 eV
  Number of coefficients: 14243 (reduced to 7122)
  Pulay-stress correction: 0.000000 eV/Ang^3 (de/decut=0.000000)
  Using Numpy's FFT
  ScaLapack parameters: grid=1x1, blocksize=None
  Wavefunction extrapolation:
    Improved wavefunction reuse through dual PAW basis 

Occupation numbers: # Zero width 

Eigensolver
   RMM-DIIS eigensolver
       keep_htpsit: True
       DIIS iterations: 3
       Threshold for DIIS: 1.0e-16
       Limit lambda: False
       use_rayleigh: False
       trial_step: 0.1 

Densities:
  Coarse grid: 45*45*45 grid
  Fine grid: 90*90*90 grid
  Total Charge: 0.000000 

Density mixing:
  Method: separate
  Backend: pulay
  Linear mixing parameter: 0.05
  old densities: 5
  Damping of long wavelength oscillations: 50 

Hamiltonian:
  XC and Coulomb potentials evaluated on a 90*90*90 grid
  Using the PBE Exchange-Correlation functional
  External potential:
    NoExternalPotential
 

XC parameters: PBE with 2 nearest neighbor stencil

Memory estimate:
  Process memory now: 281.66 MiB
  Calculator: 60.61 MiB
    Density: 43.91 MiB
      Arrays: 18.08 MiB
      Localized functions: 18.88 MiB
      Mixer: 6.95 MiB
    Hamiltonian: 12.28 MiB
      Arrays: 11.82 MiB
      XC: 0.00 MiB
      Poisson: 0.00 MiB
      vbar: 0.46 MiB
    Wavefunctions: 4.42 MiB
      Arrays psit_nG: 0.54 MiB
      Eigensolver: 1.09 MiB
      Projections: 0.00 MiB
      Projectors: 0.92 MiB
      PW-descriptor: 1.87 MiB

Total number of cores used: 1

Number of atoms: 2
Number of atomic orbitals: 5
Number of bands in calculation: 5
Number of valence electrons: 8
Bands to converge: occupied

... initialized

Initializing position-dependent things.

Creating initial wave functions:
  5 bands from LCAO basis set

       .------------------------.  
      /|                        |  
     / |                        |  
    /  |                        |  
   /   |                        |  
  /    |                        |  
 *     |                        |  
 |     |                        |  
 |     |                        |  
 |     |       H  Cl            |  
 |     |                        |  
 |     |                        |  
 |     .------------------------.  
 |    /                        /   
 |   /                        /    
 |  /                        /     
 | /                        /      
 |/                        /       
 *------------------------*        

Positions:
   0 H      4.365000    5.000000    5.000000    ( 0.0000,  0.0000,  0.0000)
   1 Cl     5.635000    5.000000    5.000000    ( 0.0000,  0.0000,  0.0000)

Unit cell:
           periodic     x           y           z      points  spacing
  1. axis:    no    10.000000    0.000000    0.000000    45     0.2222
  2. axis:    no     0.000000   10.000000    0.000000    45     0.2222
  3. axis:    no     0.000000    0.000000   10.000000    45     0.2222

  Lengths:  10.000000  10.000000  10.000000
  Angles:   90.000000  90.000000  90.000000

Effective grid spacing dv^(1/3) = 0.2222

     iter     time        total  log10-change:
                         energy   eigst   dens
iter:   1 22:17:23    -4.158668   +0.82
iter:   2 22:17:24    -5.924655   -0.70  -2.01
iter:   3 22:17:24    -5.950944   -2.53  -3.00
iter:   4 22:17:24    -5.951364   -3.89  -3.05
iter:   5 22:17:25    -5.951359c  -5.22  -3.04
iter:   6 22:17:25    -5.951340c  -5.07  -3.15
iter:   7 22:17:26    -5.951342c  -6.12  -3.49
iter:   8 22:17:26    -5.951340c  -6.13  -3.62
iter:   9 22:17:26    -5.951339c  -5.88  -3.90
iter:  10 22:17:27    -5.951340c  -6.65  -4.38c
iter:  11 22:17:28    -5.951340c  -7.91c -4.74c

Converged after 11 iterations.

Dipole moment: (-0.224181, 0.000000, 0.000000) |e|*Ang

Energy contributions relative to reference atoms: (reference = -12567.439558)

Kinetic:         +7.667071
Potential:       -8.582391
External:        +0.000000
XC:              -5.043070
Entropy (-ST):   +0.000000
Local:           +0.007050
SIC:             +0.000000
--------------------------
Free energy:     -5.951340
Extrapolated:    -5.951340

 Band  Eigenvalues  Occupancy
    0    -21.05552    2.00000
    1    -11.58091    2.00000
    2     -7.82093    2.00000
    3     -7.82093    2.00000
    4     -0.96857    0.00000

Fermi level: -4.39475

Gap: 6.852 eV
Transition (v -> c):
  (s=0, k=0, n=3, [0.00, 0.00, 0.00]) -> (s=0, k=0, n=4, [0.00, 0.00, 0.00])
No difference between direct/indirect transitions

Forces in eV/Ang:
  0 H    -0.74522    0.00000    0.00000
  1 Cl    0.74792    0.00000    0.00000

System changes: positions 

Initializing position-dependent things.

Density initialized from wave functions
       .------------------------.  
      /|                        |  
     / |                        |  
    /  |                        |  
   /   |                        |  
  /    |                        |  
 *     |                        |  
 |     |                        |  
 |     |                        |  
 |     |       H  Cl            |  
 |     |                        |  
 |     |                        |  
 |     .------------------------.  
 |    /                        /   
 |   /                        /    
 |  /                        /     
 | /                        /      
 |/                        /       
 *------------------------*        

Positions:
   0 H      4.290478    5.000000    5.000000    ( 0.0000,  0.0000,  0.0000)
   1 Cl     5.709792    5.000000    5.000000    ( 0.0000,  0.0000,  0.0000)

Unit cell:
           periodic     x           y           z      points  spacing
  1. axis:    no    10.000000    0.000000    0.000000    45     0.2222
  2. axis:    no     0.000000   10.000000    0.000000    45     0.2222
  3. axis:    no     0.000000    0.000000   10.000000    45     0.2222

  Lengths:  10.000000  10.000000  10.000000
  Angles:   90.000000  90.000000  90.000000

Effective grid spacing dv^(1/3) = 0.2222

     iter     time        total  log10-change:
                         energy   eigst   dens
iter:   1 22:17:28    -5.743090   -0.18
iter:   2 22:17:28    -5.843602   -1.89  -1.34
iter:   3 22:17:29    -5.711240   -0.73  -1.36
iter:   4 22:17:29    -5.761736   -1.61  -1.68
iter:   5 22:17:29    -5.772034   -2.11  -2.16
iter:   6 22:17:30    -5.766913   -2.08  -1.93
iter:   7 22:17:30    -5.770262   -3.05  -2.60
iter:   8 22:17:31    -5.770173c  -3.60  -2.55
iter:   9 22:17:31    -5.770247c  -3.85  -3.01
iter:  10 22:17:32    -5.770235c  -4.09  -2.96
iter:  11 22:17:32    -5.770263c  -4.48  -3.37
iter:  12 22:17:33    -5.770256c  -4.94  -3.21
iter:  13 22:17:33    -5.770259c  -5.74  -3.90
iter:  14 22:17:34    -5.770260c  -7.43c -4.35c

Converged after 14 iterations.

Dipole moment: (-0.254646, 0.000000, 0.000000) |e|*Ang

Energy contributions relative to reference atoms: (reference = -12567.439558)

Kinetic:         +1.988836
Potential:       -4.002681
External:        +0.000000
XC:              -3.761689
Entropy (-ST):   +0.000000
Local:           +0.005274
SIC:             +0.000000
--------------------------
Free energy:     -5.770260
Extrapolated:    -5.770260

 Band  Eigenvalues  Occupancy
    0    -20.54361    2.00000
    1    -11.12079    2.00000
    2     -7.72033    2.00000
    3     -7.72033    2.00000
    4     -1.81732    0.00000

Fermi level: -4.76883

Gap: 5.903 eV
Transition (v -> c):
  (s=0, k=0, n=3, [0.00, 0.00, 0.00]) -> (s=0, k=0, n=4, [0.00, 0.00, 0.00])
No difference between direct/indirect transitions

Forces in eV/Ang:
  0 H     2.69765    0.00000    0.00000
  1 Cl   -2.68539    0.00000    0.00000

System changes: positions 

Initializing position-dependent things.

Density initialized from wave functions
       .------------------------.  
      /|                        |  
     / |                        |  
    /  |                        |  
   /   |                        |  
  /    |                        |  
 *     |                        |  
 |     |                        |  
 |     |                        |  
 |     |       H  Cl            |  
 |     |                        |  
 |     |                        |  
 |     .------------------------.  
 |    /                        /   
 |   /                        /    
 |  /                        /     
 | /                        /      
 |/                        /       
 *------------------------*        

Positions:
   0 H      4.353031    5.000000    5.000000    ( 0.0000,  0.0000,  0.0000)
   1 Cl     5.647013    5.000000    5.000000    ( 0.0000,  0.0000,  0.0000)

Unit cell:
           periodic     x           y           z      points  spacing
  1. axis:    no    10.000000    0.000000    0.000000    45     0.2222
  2. axis:    no     0.000000   10.000000    0.000000    45     0.2222
  3. axis:    no     0.000000    0.000000   10.000000    45     0.2222

  Lengths:  10.000000  10.000000  10.000000
  Angles:   90.000000  90.000000  90.000000

Effective grid spacing dv^(1/3) = 0.2222

     iter     time        total  log10-change:
                         energy   eigst   dens
iter:   1 22:17:34    -5.950558   -0.47
iter:   2 22:17:34    -5.994867   -2.34  -1.49
iter:   3 22:17:35    -5.936888   -1.26  -1.52
iter:   4 22:17:35    -5.958784   -2.37  -2.22
iter:   5 22:17:36    -5.961098   -2.89  -2.24
iter:   6 22:17:36    -5.958010c  -2.22  -2.09
iter:   7 22:17:36    -5.959954c  -3.43  -2.45
iter:   8 22:17:37    -5.959903c  -4.01  -2.67
iter:   9 22:17:37    -5.959900c  -4.56  -3.01
iter:  10 22:17:38    -5.959909c  -5.91  -3.40
iter:  11 22:17:38    -5.959907c  -5.13  -3.47
iter:  12 22:17:39    -5.959908c  -5.87  -3.75
iter:  13 22:17:39    -5.959908c  -6.97  -4.13c
iter:  14 22:17:40    -5.959910c  -5.57  -4.13c
iter:  15 22:17:40    -5.959908c  -5.77  -3.66
iter:  16 22:17:41    -5.959909c  -7.33  -4.42c
iter:  17 22:17:41    -5.959909c  -7.70c -4.57c

Converged after 17 iterations.

Dipole moment: (-0.229095, 0.000000, 0.000000) |e|*Ang

Energy contributions relative to reference atoms: (reference = -12567.439558)

Kinetic:         +6.561045
Potential:       -7.713211
External:        +0.000000
XC:              -4.814515
Entropy (-ST):   +0.000000
Local:           +0.006772
SIC:             +0.000000
--------------------------
Free energy:     -5.959909
Extrapolated:    -5.959909

 Band  Eigenvalues  Occupancy
    0    -20.95947    2.00000
    1    -11.50792    2.00000
    2     -7.80394    2.00000
    3     -7.80394    2.00000
    4     -1.07720    0.00000

Fermi level: -4.44057

Gap: 6.727 eV
Transition (v -> c):
  (s=0, k=0, n=3, [0.00, 0.00, 0.00]) -> (s=0, k=0, n=4, [0.00, 0.00, 0.00])
No difference between direct/indirect transitions

Forces in eV/Ang:
  0 H     0.01515    0.00000    0.00000
  1 Cl   -0.01667    0.00000    0.00000

System changes: positions 

Initializing position-dependent things.

Density initialized from wave functions
       .------------------------.  
      /|                        |  
     / |                        |  
    /  |                        |  
   /   |                        |  
  /    |                        |  
 *     |                        |  
 |     |                        |  
 |     |                        |  
 |     |       H  Cl            |  
 |     |                        |  
 |     |                        |  
 |     .------------------------.  
 |    /                        /   
 |   /                        /    
 |  /                        /     
 | /                        /      
 |/                        /       
 *------------------------*        

Positions:
   0 H      4.353208    5.000000    5.000000    ( 0.0000,  0.0000,  0.0000)
   1 Cl     5.646691    5.000000    5.000000    ( 0.0000,  0.0000,  0.0000)

Unit cell:
           periodic     x           y           z      points  spacing
  1. axis:    no    10.000000    0.000000    0.000000    45     0.2222
  2. axis:    no     0.000000   10.000000    0.000000    45     0.2222
  3. axis:    no     0.000000    0.000000   10.000000    45     0.2222

  Lengths:  10.000000  10.000000  10.000000
  Angles:   90.000000  90.000000  90.000000

Effective grid spacing dv^(1/3) = 0.2222

     iter     time        total  log10-change:
                         energy   eigst   dens
iter:   1 22:17:42    -5.959912   -5.05
iter:   2 22:17:42    -5.959913   -6.96  -3.92
iter:   3 22:17:42    -5.959912c  -6.20  -3.94
iter:   4 22:17:43    -5.959912c  -7.53c -4.69c

Converged after 4 iterations.

Dipole moment: (-0.228970, 0.000000, 0.000000) |e|*Ang

Energy contributions relative to reference atoms: (reference = -12567.439558)

Kinetic:         +6.579205
Potential:       -7.728113
External:        +0.000000
XC:              -4.818764
Entropy (-ST):   +0.000000
Local:           +0.007759
SIC:             +0.000000
--------------------------
Free energy:     -5.959912
Extrapolated:    -5.959912

 Band  Eigenvalues  Occupancy
    0    -20.96149    2.00000
    1    -11.50959    2.00000
    2     -7.80433    2.00000
    3     -7.80433    2.00000
    4     -1.07485    0.00000

Fermi level: -4.43959

Gap: 6.729 eV
Transition (v -> c):
  (s=0, k=0, n=3, [0.00, 0.00, 0.00]) -> (s=0, k=0, n=4, [0.00, 0.00, 0.00])
No difference between direct/indirect transitions

Forces in eV/Ang:
  0 H     0.00006    0.00000    0.00000
  1 Cl   -0.00402    0.00000    0.00000

Writing to ./HCl_analysis/HCl_relaxed.gpw (mode='')

System changes: positions 

Initializing position-dependent things.

Density initialized from wave functions
       .------------------------.  
      /|                        |  
     / |                        |  
    /  |                        |  
   /   |                        |  
  /    |                        |  
 *     |                        |  
 |     |                        |  
 |     |                        |  
 |     |       H  Cl            |  
 |     |                        |  
 |     |                        |  
 |     .------------------------.  
 |    /                        /   
 |   /                        /    
 |  /                        /     
 | /                        /      
 |/                        /       
 *------------------------*        

Positions:
   0 H      4.403259    5.000000    5.000000    ( 0.0000,  0.0000,  0.0000)
   1 Cl     5.596741    5.000000    5.000000    ( 0.0000,  0.0000,  0.0000)

Unit cell:
           periodic     x           y           z      points  spacing
  1. axis:    no    10.000000    0.000000    0.000000    45     0.2222
  2. axis:    no     0.000000   10.000000    0.000000    45     0.2222
  3. axis:    no     0.000000    0.000000   10.000000    45     0.2222

  Lengths:  10.000000  10.000000  10.000000
  Angles:   90.000000  90.000000  90.000000

Effective grid spacing dv^(1/3) = 0.2222

     iter     time        total  log10-change:
                         energy   eigst   dens
iter:   1 22:17:43    -5.760347   -0.50
iter:   2 22:17:43    -5.802739   -2.35  -1.59
iter:   3 22:17:44    -5.762251   -1.34  -1.61
iter:   4 22:17:44    -5.778986   -2.33  -2.23
iter:   5 22:17:45    -5.781022   -3.04  -2.33
iter:   6 22:17:45    -5.779337c  -2.41  -2.19
iter:   7 22:17:46    -5.780429c  -3.35  -2.53
iter:   8 22:17:46    -5.780562c  -4.48  -2.97
iter:   9 22:17:46    -5.780556c  -4.96  -3.20
iter:  10 22:17:47    -5.780562c  -6.03  -3.57
iter:  11 22:17:47    -5.780560c  -5.50  -3.64
iter:  12 22:17:48    -5.780561c  -5.94  -4.10c
iter:  13 22:17:48    -5.780561c  -6.87  -4.18c
iter:  14 22:17:49    -5.780561c  -7.42c -4.53c

Converged after 14 iterations.

Dipole moment: (-0.208266, 0.000000, 0.000000) |e|*Ang

Energy contributions relative to reference atoms: (reference = -12567.439558)

Kinetic:        +11.824117
Potential:      -11.771573
External:        +0.000000
XC:              -5.839157
Entropy (-ST):   +0.000000
Local:           +0.006053
SIC:             +0.000000
--------------------------
Free energy:     -5.780561
Extrapolated:    -5.780561

 Band  Eigenvalues  Occupancy
    0    -21.40154    2.00000
    1    -11.80833    2.00000
    2     -7.87685    2.00000
    3     -7.87685    2.00000
    4     -0.71748    0.00000

Fermi level: -4.29716

Gap: 7.159 eV
Transition (v -> c):
  (s=0, k=0, n=3, [0.00, 0.00, 0.00]) -> (s=0, k=0, n=4, [0.00, 0.00, 0.00])
No difference between direct/indirect transitions
System changes: positions 

Initializing position-dependent things.

Density initialized from wave functions
       .------------------------.  
      /|                        |  
     / |                        |  
    /  |                        |  
   /   |                        |  
  /    |                        |  
 *     |                        |  
 |     |                        |  
 |     |                        |  
 |     |       H  Cl            |  
 |     |                        |  
 |     |                        |  
 |     .------------------------.  
 |    /                        /   
 |   /                        /    
 |  /                        /     
 | /                        /      
 |/                        /       
 *------------------------*        

Positions:
   0 H      4.393259    5.000000    5.000000    ( 0.0000,  0.0000,  0.0000)
   1 Cl     5.606741    5.000000    5.000000    ( 0.0000,  0.0000,  0.0000)

Unit cell:
           periodic     x           y           z      points  spacing
  1. axis:    no    10.000000    0.000000    0.000000    45     0.2222
  2. axis:    no     0.000000   10.000000    0.000000    45     0.2222
  3. axis:    no     0.000000    0.000000   10.000000    45     0.2222

  Lengths:  10.000000  10.000000  10.000000
  Angles:   90.000000  90.000000  90.000000

Effective grid spacing dv^(1/3) = 0.2222

     iter     time        total  log10-change:
                         energy   eigst   dens
iter:   1 22:17:49    -5.848234   -1.79
iter:   2 22:17:49    -5.850508   -3.57  -2.26
iter:   3 22:17:49    -5.848451c  -2.60  -2.28
iter:   4 22:17:50    -5.849349c  -3.65  -2.81
iter:   5 22:17:50    -5.849467c  -3.69  -3.10
iter:   6 22:17:51    -5.849346c  -3.71  -2.74
iter:   7 22:17:51    -5.849428c  -5.00  -3.69
iter:   8 22:17:52    -5.849428c  -5.72  -3.74
iter:   9 22:17:52    -5.849429c  -6.94  -4.21c
iter:  10 22:17:52    -5.849429c  -7.55c -4.18c

Converged after 10 iterations.

Dipole moment: (-0.212375, 0.000000, 0.000000) |e|*Ang

Energy contributions relative to reference atoms: (reference = -12567.439558)

Kinetic:        +10.631386
Potential:      -10.867620
External:        +0.000000
XC:              -5.620353
Entropy (-ST):   +0.000000
Local:           +0.007158
SIC:             +0.000000
--------------------------
Free energy:     -5.849429
Extrapolated:    -5.849429

 Band  Eigenvalues  Occupancy
    0    -21.30507    2.00000
    1    -11.74999    2.00000
    2     -7.86206    2.00000
    3     -7.86206    2.00000
    4     -0.76966    0.00000

Fermi level: -4.31586

Gap: 7.092 eV
Transition (v -> c):
  (s=0, k=0, n=3, [0.00, 0.00, 0.00]) -> (s=0, k=0, n=4, [0.00, 0.00, 0.00])
No difference between direct/indirect transitions
System changes: positions 

Initializing position-dependent things.

Density initialized from wave functions
       .------------------------.  
      /|                        |  
     / |                        |  
    /  |                        |  
   /   |                        |  
  /    |                        |  
 *     |                        |  
 |     |                        |  
 |     |                        |  
 |     |       H  Cl            |  
 |     |                        |  
 |     |                        |  
 |     .------------------------.  
 |    /                        /   
 |   /                        /    
 |  /                        /     
 | /                        /      
 |/                        /       
 *------------------------*        

Positions:
   0 H      4.383259    5.000000    5.000000    ( 0.0000,  0.0000,  0.0000)
   1 Cl     5.616741    5.000000    5.000000    ( 0.0000,  0.0000,  0.0000)

Unit cell:
           periodic     x           y           z      points  spacing
  1. axis:    no    10.000000    0.000000    0.000000    45     0.2222
  2. axis:    no     0.000000   10.000000    0.000000    45     0.2222
  3. axis:    no     0.000000    0.000000   10.000000    45     0.2222

  Lengths:  10.000000  10.000000  10.000000
  Angles:   90.000000  90.000000  90.000000

Effective grid spacing dv^(1/3) = 0.2222

     iter     time        total  log10-change:
                         energy   eigst   dens
iter:   1 22:17:53    -5.899001   -1.81
iter:   2 22:17:53    -5.901153   -3.60  -2.26
iter:   3 22:17:53    -5.899046c  -2.57  -2.27
iter:   4 22:17:54    -5.899960c  -3.56  -2.75
iter:   5 22:17:54    -5.900096c  -3.74  -3.10
iter:   6 22:17:54    -5.899986c  -3.75  -2.76
iter:   7 22:17:55    -5.900062c  -4.85  -3.69
iter:   8 22:17:55    -5.900059c  -5.42  -3.50
iter:   9 22:17:56    -5.900060c  -6.10  -4.12c
iter:  10 22:17:56    -5.900060c  -6.88  -4.12c
iter:  11 22:17:56    -5.900060c  -6.92  -4.25c
iter:  12 22:17:57    -5.900060c  -6.79  -4.24c
iter:  13 22:17:57    -5.900060c  -7.28  -4.55c
iter:  14 22:17:58    -5.900060c  -6.87  -4.37c
iter:  15 22:17:58    -5.900060c  -8.23c -5.16c

Converged after 15 iterations.

Dipole moment: (-0.216532, 0.000000, 0.000000) |e|*Ang

Energy contributions relative to reference atoms: (reference = -12567.439558)

Kinetic:         +9.523492
Potential:      -10.021066
External:        +0.000000
XC:              -5.409879
Entropy (-ST):   +0.000000
Local:           +0.007394
SIC:             +0.000000
--------------------------
Free energy:     -5.900060
Extrapolated:    -5.900060

 Band  Eigenvalues  Occupancy
    0    -21.21285    2.00000
    1    -11.69060    2.00000
    2     -7.84731    2.00000
    3     -7.84731    2.00000
    4     -0.83089    0.00000

Fermi level: -4.33910

Gap: 7.016 eV
Transition (v -> c):
  (s=0, k=0, n=3, [0.00, 0.00, 0.00]) -> (s=0, k=0, n=4, [0.00, 0.00, 0.00])
No difference between direct/indirect transitions
System changes: positions 

Initializing position-dependent things.

Density initialized from wave functions
       .------------------------.  
      /|                        |  
     / |                        |  
    /  |                        |  
   /   |                        |  
  /    |                        |  
 *     |                        |  
 |     |                        |  
 |     |                        |  
 |     |       H  Cl            |  
 |     |                        |  
 |     |                        |  
 |     .------------------------.  
 |    /                        /   
 |   /                        /    
 |  /                        /     
 | /                        /      
 |/                        /       
 *------------------------*        

Positions:
   0 H      4.373259    5.000000    5.000000    ( 0.0000,  0.0000,  0.0000)
   1 Cl     5.626741    5.000000    5.000000    ( 0.0000,  0.0000,  0.0000)

Unit cell:
           periodic     x           y           z      points  spacing
  1. axis:    no    10.000000    0.000000    0.000000    45     0.2222
  2. axis:    no     0.000000   10.000000    0.000000    45     0.2222
  3. axis:    no     0.000000    0.000000   10.000000    45     0.2222

  Lengths:  10.000000  10.000000  10.000000
  Angles:   90.000000  90.000000  90.000000

Effective grid spacing dv^(1/3) = 0.2222

     iter     time        total  log10-change:
                         energy   eigst   dens
iter:   1 22:17:58    -5.933358   -1.84
iter:   2 22:17:59    -5.935373   -3.63  -2.26
iter:   3 22:17:59    -5.933249c  -2.55  -2.27
iter:   4 22:17:59    -5.934156c  -3.47  -2.70
iter:   5 22:18:00    -5.934315c  -3.82  -3.09
iter:   6 22:18:00    -5.934213c  -3.80  -2.78
iter:   7 22:18:00    -5.934284c  -4.70  -3.67
iter:   8 22:18:01    -5.934276c  -5.14  -3.33
iter:   9 22:18:01    -5.934278c  -5.64  -3.94
iter:  10 22:18:02    -5.934279c  -6.93  -4.05c
iter:  11 22:18:02    -5.934279c  -8.19c -4.12c

Converged after 11 iterations.

Dipole moment: (-0.220654, 0.000000, 0.000000) |e|*Ang

Energy contributions relative to reference atoms: (reference = -12567.439558)

Kinetic:         +8.472144
Potential:       -9.207547
External:        +0.000000
XC:              -5.205117
Entropy (-ST):   +0.000000
Local:           +0.006241
SIC:             +0.000000
--------------------------
Free energy:     -5.934279
Extrapolated:    -5.934279

 Band  Eigenvalues  Occupancy
    0    -21.12527    2.00000
    1    -11.63126    2.00000
    2     -7.83314    2.00000
    3     -7.83314    2.00000
    4     -0.90225    0.00000

Fermi level: -4.36770

Gap: 6.931 eV
Transition (v -> c):
  (s=0, k=0, n=3, [0.00, 0.00, 0.00]) -> (s=0, k=0, n=4, [0.00, 0.00, 0.00])
No difference between direct/indirect transitions
System changes: positions 

Initializing position-dependent things.

Density initialized from wave functions
       .------------------------.  
      /|                        |  
     / |                        |  
    /  |                        |  
   /   |                        |  
  /    |                        |  
 *     |                        |  
 |     |                        |  
 |     |                        |  
 |     |       H  Cl            |  
 |     |                        |  
 |     |                        |  
 |     .------------------------.  
 |    /                        /   
 |   /                        /    
 |  /                        /     
 | /                        /      
 |/                        /       
 *------------------------*        

Positions:
   0 H      4.363259    5.000000    5.000000    ( 0.0000,  0.0000,  0.0000)
   1 Cl     5.636741    5.000000    5.000000    ( 0.0000,  0.0000,  0.0000)

Unit cell:
           periodic     x           y           z      points  spacing
  1. axis:    no    10.000000    0.000000    0.000000    45     0.2222
  2. axis:    no     0.000000   10.000000    0.000000    45     0.2222
  3. axis:    no     0.000000    0.000000   10.000000    45     0.2222

  Lengths:  10.000000  10.000000  10.000000
  Angles:   90.000000  90.000000  90.000000

Effective grid spacing dv^(1/3) = 0.2222

     iter     time        total  log10-change:
                         energy   eigst   dens
iter:   1 22:18:02    -5.952947   -1.87
iter:   2 22:18:03    -5.954853   -3.66  -2.25
iter:   3 22:18:03    -5.952678c  -2.52  -2.27
iter:   4 22:18:03    -5.953584c  -3.40  -2.65
iter:   5 22:18:04    -5.953773c  -3.87  -3.08
iter:   6 22:18:04    -5.953670c  -3.82  -2.79
iter:   7 22:18:05    -5.953740c  -4.65  -3.65
iter:   8 22:18:05    -5.953730c  -5.05  -3.27
iter:   9 22:18:05    -5.953732c  -5.48  -3.84
iter:  10 22:18:06    -5.953733c  -6.80  -4.01c
iter:  11 22:18:06    -5.953733c  -8.20c -4.06c

Converged after 11 iterations.

Dipole moment: (-0.224765, 0.000000, 0.000000) |e|*Ang

Energy contributions relative to reference atoms: (reference = -12567.439558)

Kinetic:         +7.490493
Potential:       -8.442554
External:        +0.000000
XC:              -5.008043
Entropy (-ST):   +0.000000
Local:           +0.006371
SIC:             +0.000000
--------------------------
Free energy:     -5.953733
Extrapolated:    -5.953733

 Band  Eigenvalues  Occupancy
    0    -21.04153    2.00000
    1    -11.57091    2.00000
    2     -7.81888    2.00000
    3     -7.81888    2.00000
    4     -0.98363    0.00000

Fermi level: -4.40125

Gap: 6.835 eV
Transition (v -> c):
  (s=0, k=0, n=3, [0.00, 0.00, 0.00]) -> (s=0, k=0, n=4, [0.00, 0.00, 0.00])
No difference between direct/indirect transitions
System changes: positions 

Initializing position-dependent things.

Density initialized from wave functions
       .------------------------.  
      /|                        |  
     / |                        |  
    /  |                        |  
   /   |                        |  
  /    |                        |  
 *     |                        |  
 |     |                        |  
 |     |                        |  
 |     |       H  Cl            |  
 |     |                        |  
 |     |                        |  
 |     .------------------------.  
 |    /                        /   
 |   /                        /    
 |  /                        /     
 | /                        /      
 |/                        /       
 *------------------------*        

Positions:
   0 H      4.353259    5.000000    5.000000    ( 0.0000,  0.0000,  0.0000)
   1 Cl     5.646741    5.000000    5.000000    ( 0.0000,  0.0000,  0.0000)

Unit cell:
           periodic     x           y           z      points  spacing
  1. axis:    no    10.000000    0.000000    0.000000    45     0.2222
  2. axis:    no     0.000000   10.000000    0.000000    45     0.2222
  3. axis:    no     0.000000    0.000000   10.000000    45     0.2222

  Lengths:  10.000000  10.000000  10.000000
  Angles:   90.000000  90.000000  90.000000

Effective grid spacing dv^(1/3) = 0.2222

     iter     time        total  log10-change:
                         energy   eigst   dens
iter:   1 22:18:07    -5.959259   -1.90
iter:   2 22:18:07    -5.961047   -3.69  -2.25
iter:   3 22:18:07    -5.958862c  -2.51  -2.27
iter:   4 22:18:08    -5.959746c  -3.35  -2.63
iter:   5 22:18:08    -5.959957c  -3.94  -3.06
iter:   6 22:18:08    -5.959853c  -3.84  -2.80
iter:   7 22:18:09    -5.959919c  -4.66  -3.63
iter:   8 22:18:09    -5.959910c  -5.08  -3.27
iter:   9 22:18:10    -5.959911c  -5.45  -3.81
iter:  10 22:18:10    -5.959912c  -6.76  -3.99
iter:  11 22:18:11    -5.959913c  -8.15c -4.03c

Converged after 11 iterations.

Dipole moment: (-0.228886, 0.000000, 0.000000) |e|*Ang

Energy contributions relative to reference atoms: (reference = -12567.439558)

Kinetic:         +6.570886
Potential:       -7.719257
External:        +0.000000
XC:              -4.817763
Entropy (-ST):   +0.000000
Local:           +0.006221
SIC:             +0.000000
--------------------------
Free energy:     -5.959913
Extrapolated:    -5.959913

 Band  Eigenvalues  Occupancy
    0    -20.96181    2.00000
    1    -11.51003    2.00000
    2     -7.80477    2.00000
    3     -7.80477    2.00000
    4     -1.07497    0.00000

Fermi level: -4.43987

Gap: 6.730 eV
Transition (v -> c):
  (s=0, k=0, n=3, [0.00, 0.00, 0.00]) -> (s=0, k=0, n=4, [0.00, 0.00, 0.00])
No difference between direct/indirect transitions
System changes: positions 

Initializing position-dependent things.

Density initialized from wave functions
       .------------------------.  
      /|                        |  
     / |                        |  
    /  |                        |  
   /   |                        |  
  /    |                        |  
 *     |                        |  
 |     |                        |  
 |     |                        |  
 |     |       H  Cl            |  
 |     |                        |  
 |     |                        |  
 |     .------------------------.  
 |    /                        /   
 |   /                        /    
 |  /                        /     
 | /                        /      
 |/                        /       
 *------------------------*        

Positions:
   0 H      4.343259    5.000000    5.000000    ( 0.0000,  0.0000,  0.0000)
   1 Cl     5.656741    5.000000    5.000000    ( 0.0000,  0.0000,  0.0000)

Unit cell:
           periodic     x           y           z      points  spacing
  1. axis:    no    10.000000    0.000000    0.000000    45     0.2222
  2. axis:    no     0.000000   10.000000    0.000000    45     0.2222
  3. axis:    no     0.000000    0.000000   10.000000    45     0.2222

  Lengths:  10.000000  10.000000  10.000000
  Angles:   90.000000  90.000000  90.000000

Effective grid spacing dv^(1/3) = 0.2222

     iter     time        total  log10-change:
                         energy   eigst   dens
iter:   1 22:18:11    -5.953638   -1.93
iter:   2 22:18:11    -5.955309   -3.73  -2.24
iter:   3 22:18:11    -5.953145c  -2.52  -2.26
iter:   4 22:18:12    -5.953997c  -3.33  -2.63
iter:   5 22:18:12    -5.954219c  -4.01  -3.04
iter:   6 22:18:13    -5.954109c  -3.85  -2.80
iter:   7 22:18:13    -5.954172c  -4.71  -3.60
iter:   8 22:18:13    -5.954166c  -5.17  -3.31
iter:   9 22:18:14    -5.954167c  -5.52  -3.84
iter:  10 22:18:14    -5.954168c  -6.82  -3.98
iter:  11 22:18:15    -5.954168c  -7.90c -4.01c

Converged after 11 iterations.

Dipole moment: (-0.232983, 0.000000, 0.000000) |e|*Ang

Energy contributions relative to reference atoms: (reference = -12567.439558)

Kinetic:         +5.708520
Potential:       -7.034603
External:        +0.000000
XC:              -4.633929
Entropy (-ST):   +0.000000
Local:           +0.005845
SIC:             +0.000000
--------------------------
Free energy:     -5.954168
Extrapolated:    -5.954168

 Band  Eigenvalues  Occupancy
    0    -20.88597    2.00000
    1    -11.44877    2.00000
    2     -7.79086    2.00000
    3     -7.79086    2.00000
    4     -1.17551    0.00000

Fermi level: -4.48319

Gap: 6.615 eV
Transition (v -> c):
  (s=0, k=0, n=3, [0.00, 0.00, 0.00]) -> (s=0, k=0, n=4, [0.00, 0.00, 0.00])
No difference between direct/indirect transitions
System changes: positions 

Initializing position-dependent things.

Density initialized from wave functions
       .------------------------.  
      /|                        |  
     / |                        |  
    /  |                        |  
   /   |                        |  
  /    |                        |  
 *     |                        |  
 |     |                        |  
 |     |                        |  
 |     |       H  Cl            |  
 |     |                        |  
 |     |                        |  
 |     .------------------------.  
 |    /                        /   
 |   /                        /    
 |  /                        /     
 | /                        /      
 |/                        /       
 *------------------------*        

Positions:
   0 H      4.333259    5.000000    5.000000    ( 0.0000,  0.0000,  0.0000)
   1 Cl     5.666741    5.000000    5.000000    ( 0.0000,  0.0000,  0.0000)

Unit cell:
           periodic     x           y           z      points  spacing
  1. axis:    no    10.000000    0.000000    0.000000    45     0.2222
  2. axis:    no     0.000000   10.000000    0.000000    45     0.2222
  3. axis:    no     0.000000    0.000000   10.000000    45     0.2222

  Lengths:  10.000000  10.000000  10.000000
  Angles:   90.000000  90.000000  90.000000

Effective grid spacing dv^(1/3) = 0.2222

     iter     time        total  log10-change:
                         energy   eigst   dens
iter:   1 22:18:15    -5.937312   -1.96
iter:   2 22:18:16    -5.938872   -3.76  -2.24
iter:   3 22:18:16    -5.936738c  -2.53  -2.26
iter:   4 22:18:16    -5.937558c  -3.33  -2.63
iter:   5 22:18:17    -5.937785c  -4.06  -3.01
iter:   6 22:18:17    -5.937663c  -3.82  -2.79
iter:   7 22:18:17    -5.937726c  -4.74  -3.57
iter:   8 22:18:18    -5.937722c  -5.24  -3.36
iter:   9 22:18:18    -5.937723c  -5.61  -3.90
iter:  10 22:18:19    -5.937724c  -6.92  -3.96
iter:  11 22:18:19    -5.937725c  -7.05  -3.97
iter:  12 22:18:19    -5.937723c  -5.90  -3.83
iter:  13 22:18:20    -5.937724c  -7.35  -4.55c
iter:  14 22:18:20    -5.937724c  -7.87c -4.79c

Converged after 14 iterations.

Dipole moment: (-0.237197, 0.000000, 0.000000) |e|*Ang

Energy contributions relative to reference atoms: (reference = -12567.439558)

Kinetic:         +4.912569
Potential:       -6.398604
External:        +0.000000
XC:              -4.457765
Entropy (-ST):   +0.000000
Local:           +0.006076
SIC:             +0.000000
--------------------------
Free energy:     -5.937724
Extrapolated:    -5.937724

 Band  Eigenvalues  Occupancy
    0    -20.81356    2.00000
    1    -11.38667    2.00000
    2     -7.77665    2.00000
    3     -7.77665    2.00000
    4     -1.28429    0.00000

Fermi level: -4.53047

Gap: 6.492 eV
Transition (v -> c):
  (s=0, k=0, n=3, [0.00, 0.00, 0.00]) -> (s=0, k=0, n=4, [0.00, 0.00, 0.00])
No difference between direct/indirect transitions
System changes: positions 

Initializing position-dependent things.

Density initialized from wave functions
       .------------------------.  
      /|                        |  
     / |                        |  
    /  |                        |  
   /   |                        |  
  /    |                        |  
 *     |                        |  
 |     |                        |  
 |     |                        |  
 |     |       H  Cl            |  
 |     |                        |  
 |     |                        |  
 |     .------------------------.  
 |    /                        /   
 |   /                        /    
 |  /                        /     
 | /                        /      
 |/                        /       
 *------------------------*        

Positions:
   0 H      4.323259    5.000000    5.000000    ( 0.0000,  0.0000,  0.0000)
   1 Cl     5.676741    5.000000    5.000000    ( 0.0000,  0.0000,  0.0000)

Unit cell:
           periodic     x           y           z      points  spacing
  1. axis:    no    10.000000    0.000000    0.000000    45     0.2222
  2. axis:    no     0.000000   10.000000    0.000000    45     0.2222
  3. axis:    no     0.000000    0.000000   10.000000    45     0.2222

  Lengths:  10.000000  10.000000  10.000000
  Angles:   90.000000  90.000000  90.000000

Effective grid spacing dv^(1/3) = 0.2222

     iter     time        total  log10-change:
                         energy   eigst   dens
iter:   1 22:18:20    -5.911364   -1.99
iter:   2 22:18:21    -5.912793   -3.81  -2.25
iter:   3 22:18:21    -5.910803c  -2.59  -2.27
iter:   4 22:18:21    -5.911559c  -3.41  -2.69
iter:   5 22:18:22    -5.911761c  -4.12  -2.99
iter:   6 22:18:22    -5.911630c  -3.81  -2.78
iter:   7 22:18:22    -5.911693c  -4.80  -3.54
iter:   8 22:18:23    -5.911692c  -5.33  -3.45
iter:   9 22:18:23    -5.911693c  -5.83  -4.01c
iter:  10 22:18:24    -5.911693c  -6.67  -3.96
iter:  11 22:18:24    -5.911693c  -6.56  -4.15c
iter:  12 22:18:25    -5.911693c  -7.96c -4.59c

Converged after 12 iterations.

Dipole moment: (-0.241354, 0.000000, 0.000000) |e|*Ang

Energy contributions relative to reference atoms: (reference = -12567.439558)

Kinetic:         +4.153300
Potential:       -5.784747
External:        +0.000000
XC:              -4.285933
Entropy (-ST):   +0.000000
Local:           +0.005686
SIC:             +0.000000
--------------------------
Free energy:     -5.911693
Extrapolated:    -5.911693

 Band  Eigenvalues  Occupancy
    0    -20.74522    2.00000
    1    -11.32499    2.00000
    2     -7.76321    2.00000
    3     -7.76321    2.00000
    4     -1.40038    0.00000

Fermi level: -4.58179

Gap: 6.363 eV
Transition (v -> c):
  (s=0, k=0, n=3, [0.00, 0.00, 0.00]) -> (s=0, k=0, n=4, [0.00, 0.00, 0.00])
No difference between direct/indirect transitions
System changes: positions 

Initializing position-dependent things.

Density initialized from wave functions
       .------------------------.  
      /|                        |  
     / |                        |  
    /  |                        |  
   /   |                        |  
  /    |                        |  
 *     |                        |  
 |     |                        |  
 |     |                        |  
 |     |       H  Cl            |  
 |     |                        |  
 |     |                        |  
 |     .------------------------.  
 |    /                        /   
 |   /                        /    
 |  /                        /     
 | /                        /      
 |/                        /       
 *------------------------*        

Positions:
   0 H      4.313259    5.000000    5.000000    ( 0.0000,  0.0000,  0.0000)
   1 Cl     5.686741    5.000000    5.000000    ( 0.0000,  0.0000,  0.0000)

Unit cell:
           periodic     x           y           z      points  spacing
  1. axis:    no    10.000000    0.000000    0.000000    45     0.2222
  2. axis:    no     0.000000   10.000000    0.000000    45     0.2222
  3. axis:    no     0.000000    0.000000   10.000000    45     0.2222

  Lengths:  10.000000  10.000000  10.000000
  Angles:   90.000000  90.000000  90.000000

Effective grid spacing dv^(1/3) = 0.2222

     iter     time        total  log10-change:
                         energy   eigst   dens
iter:   1 22:18:25    -5.876845   -2.02
iter:   2 22:18:25    -5.878173   -3.84  -2.25
iter:   3 22:18:25    -5.876252c  -2.63  -2.27
iter:   4 22:18:26    -5.876972c  -3.45  -2.72
iter:   5 22:18:26    -5.877166c  -4.14  -2.97
iter:   6 22:18:27    -5.877019c  -3.78  -2.77
iter:   7 22:18:27    -5.877085c  -4.82  -3.53
iter:   8 22:18:28    -5.877084c  -5.36  -3.48
iter:   9 22:18:28    -5.877086c  -5.93  -4.05c
iter:  10 22:18:28    -5.877086c  -6.42  -3.95
iter:  11 22:18:29    -5.877086c  -7.56c -4.29c

Converged after 11 iterations.

Dipole moment: (-0.245400, 0.000000, 0.000000) |e|*Ang

Energy contributions relative to reference atoms: (reference = -12567.439558)

Kinetic:         +3.440805
Potential:       -5.202991
External:        +0.000000
XC:              -4.119788
Entropy (-ST):   +0.000000
Local:           +0.004888
SIC:             +0.000000
--------------------------
Free energy:     -5.877086
Extrapolated:    -5.877086

 Band  Eigenvalues  Occupancy
    0    -20.68039    2.00000
    1    -11.26323    2.00000
    2     -7.75010    2.00000
    3     -7.75010    2.00000
    4     -1.52227    0.00000

Fermi level: -4.63618

Gap: 6.228 eV
Transition (v -> c):
  (s=0, k=0, n=3, [0.00, 0.00, 0.00]) -> (s=0, k=0, n=4, [0.00, 0.00, 0.00])
No difference between direct/indirect transitions
System changes: positions 

Initializing position-dependent things.

Density initialized from wave functions
       .------------------------.  
      /|                        |  
     / |                        |  
    /  |                        |  
   /   |                        |  
  /    |                        |  
 *     |                        |  
 |     |                        |  
 |     |                        |  
 |     |       H  Cl            |  
 |     |                        |  
 |     |                        |  
 |     .------------------------.  
 |    /                        /   
 |   /                        /    
 |  /                        /     
 | /                        /      
 |/                        /       
 *------------------------*        

Positions:
   0 H      4.303259    5.000000    5.000000    ( 0.0000,  0.0000,  0.0000)
   1 Cl     5.696741    5.000000    5.000000    ( 0.0000,  0.0000,  0.0000)

Unit cell:
           periodic     x           y           z      points  spacing
  1. axis:    no    10.000000    0.000000    0.000000    45     0.2222
  2. axis:    no     0.000000   10.000000    0.000000    45     0.2222
  3. axis:    no     0.000000    0.000000   10.000000    45     0.2222

  Lengths:  10.000000  10.000000  10.000000
  Angles:   90.000000  90.000000  90.000000

Effective grid spacing dv^(1/3) = 0.2222

     iter     time        total  log10-change:
                         energy   eigst   dens
iter:   1 22:18:29    -5.834676   -2.04
iter:   2 22:18:29    -5.835919   -3.87  -2.24
iter:   3 22:18:30    -5.834022c  -2.65  -2.27
iter:   4 22:18:30    -5.834722c  -3.48  -2.74
iter:   5 22:18:31    -5.834916c  -4.13  -2.95
iter:   6 22:18:31    -5.834751c  -3.76  -2.75
iter:   7 22:18:31    -5.834822c  -4.83  -3.51
iter:   8 22:18:32    -5.834821c  -5.37  -3.49
iter:   9 22:18:32    -5.834823c  -5.97  -4.07c
iter:  10 22:18:33    -5.834822c  -6.37  -3.94
iter:  11 22:18:33    -5.834823c  -7.60c -4.27c

Converged after 11 iterations.

Dipole moment: (-0.249463, 0.000000, 0.000000) |e|*Ang

Energy contributions relative to reference atoms: (reference = -12567.439558)

Kinetic:         +2.776653
Potential:       -4.656416
External:        +0.000000
XC:              -3.959649
Entropy (-ST):   +0.000000
Local:           +0.004590
SIC:             +0.000000
--------------------------
Free energy:     -5.834823
Extrapolated:    -5.834823

 Band  Eigenvalues  Occupancy
    0    -20.61877    2.00000
    1    -11.20125    2.00000
    2     -7.73706    2.00000
    3     -7.73706    2.00000
    4     -1.64883    0.00000

Fermi level: -4.69295

Gap: 6.088 eV
Transition (v -> c):
  (s=0, k=0, n=3, [0.00, 0.00, 0.00]) -> (s=0, k=0, n=4, [0.00, 0.00, 0.00])
No difference between direct/indirect transitions
Timing:                                      incl.     excl.
-------------------------------------------------------------------
Density initialized from wave functions:     0.419     0.318   0.5% |
 Symmetrize density:                         0.101     0.101   0.1% |
Forces:                                      0.170     0.170   0.2% |
Hamiltonian:                                 2.869     0.023   0.0% |
 Atomic:                                     0.261     0.004   0.0% |
  XC Correction:                             0.257     0.257   0.4% |
 Calculate atomic Hamiltonians:              0.089     0.089   0.1% |
 Communicate:                                0.000     0.000   0.0% |
 Poisson:                                    0.019     0.019   0.0% |
 XC 3D grid:                                 2.477     2.477   3.5% ||
LCAO initialization:                         0.017     0.009   0.0% |
 LCAO eigensolver:                           0.001     0.000   0.0% |
  Calculate projections:                     0.000     0.000   0.0% |
  DenseAtomicCorrection:                     0.000     0.000   0.0% |
  Distribute overlap matrix:                 0.000     0.000   0.0% |
  Orbital Layouts:                           0.000     0.000   0.0% |
  Potential matrix:                          0.001     0.001   0.0% |
 LCAO to grid:                               0.005     0.005   0.0% |
 Set positions (LCAO WFS):                   0.002     0.000   0.0% |
  Basic WFS set positions:                   0.000     0.000   0.0% |
  Basis functions set positions:             0.000     0.000   0.0% |
  P tci:                                     0.001     0.001   0.0% |
  ST tci:                                    0.000     0.000   0.0% |
  mktci:                                     0.001     0.001   0.0% |
PWDescriptor:                                0.002     0.002   0.0% |
Redistribute:                                0.003     0.003   0.0% |
SCF-cycle:                                  66.271     0.051   0.1% |
 Density:                                   31.502     0.002   0.0% |
  Atomic density matrices:                   0.047     0.047   0.1% |
  Mix:                                      29.659    29.659  42.1% |----------------|
  Multipole moments:                         0.009     0.009   0.0% |
  Pseudo density:                            1.786     0.620   0.9% |
   Symmetrize density:                       1.165     1.165   1.7% ||
 Hamiltonian:                               30.313     0.323   0.5% |
  Atomic:                                    2.826     0.045   0.1% |
   XC Correction:                            2.780     2.780   3.9% |-|
  Calculate atomic Hamiltonians:             0.974     0.974   1.4% ||
  Communicate:                               0.001     0.001   0.0% |
  Poisson:                                   0.285     0.285   0.4% |
  XC 3D grid:                               25.905    25.905  36.7% |--------------|
 Orthonormalize:                             0.143     0.007   0.0% |
  calc_s_matrix:                             0.027     0.027   0.0% |
  inverse-cholesky:                          0.010     0.010   0.0% |
  projections:                               0.080     0.080   0.1% |
  rotate_psi_s:                              0.019     0.019   0.0% |
 RMM-DIIS:                                   3.017     0.073   0.1% |
  Apply H:                                   1.090     1.078   1.5% ||
   HMM T:                                    0.013     0.013   0.0% |
  Calculate residuals:                       0.164     0.164   0.2% |
  DIIS step:                                 1.463     0.065   0.1% |
   Calculate residuals:                      1.229     0.154   0.2% |
    Apply H:                                 1.075     1.062   1.5% ||
     HMM T:                                  0.013     0.013   0.0% |
   Construct matrix:                         0.079     0.079   0.1% |
   Linear solve:                             0.014     0.014   0.0% |
   Update trial vectors:                     0.059     0.059   0.1% |
   precondition:                             0.016     0.016   0.0% |
  Find lambda:                               0.059     0.059   0.1% |
  Update psi:                                0.018     0.018   0.0% |
  precondition:                              0.074     0.074   0.1% |
  projections:                               0.075     0.075   0.1% |
 Subspace diag:                              1.246     0.008   0.0% |
  calc_h_matrix:                             1.191     0.066   0.1% |
   Apply H:                                  1.126     1.107   1.6% ||
    HMM T:                                   0.019     0.019   0.0% |
  diagonalize:                               0.016     0.016   0.0% |
  rotate_psi:                                0.031     0.031   0.0% |
Set symmetry:                                0.002     0.002   0.0% |
Other:                                       0.774     0.774   1.1% |
-------------------------------------------------------------------
Total:                                                70.527 100.0%

Date: Sat May 10 22:18:33 2025
